 Entering Link 1 = C:\G09W\l1.exe PID=      5048.
  
 Copyright (c) 1988,1990,1992,1993,1995,1998,2003,2009, Gaussian, Inc.
                  All Rights Reserved.
  
 This is part of the Gaussian(R) 09 program.  It is based on
 the Gaussian(R) 03 system (copyright 2003, Gaussian, Inc.),
 the Gaussian(R) 98 system (copyright 1998, Gaussian, Inc.),
 the Gaussian(R) 94 system (copyright 1995, Gaussian, Inc.),
 the Gaussian 92(TM) system (copyright 1992, Gaussian, Inc.),
 the Gaussian 90(TM) system (copyright 1990, Gaussian, Inc.),
 the Gaussian 88(TM) system (copyright 1988, Gaussian, Inc.),
 the Gaussian 86(TM) system (copyright 1986, Carnegie Mellon
 University), and the Gaussian 82(TM) system (copyright 1983,
 Carnegie Mellon University). Gaussian is a federally registered
 trademark of Gaussian, Inc.
  
 This software contains proprietary and confidential information,
 including trade secrets, belonging to Gaussian, Inc.
  
 This software is provided under written license and may be
 used, copied, transmitted, or stored only in accord with that
 written license.
  
 The following legend is applicable only to US Government
 contracts under FAR:
  
                    RESTRICTED RIGHTS LEGEND
  
 Use, reproduction and disclosure by the US Government is
 subject to restrictions as set forth in subparagraphs (a)
 and (c) of the Commercial Computer Software - Restricted
 Rights clause in FAR 52.227-19.
  
 Gaussian, Inc.
 340 Quinnipiac St., Bldg. 40, Wallingford CT 06492
  
  
 ---------------------------------------------------------------
 Warning -- This program may not be used in any manner that
 competes with the business of Gaussian, Inc. or will provide
 assistance to any competitor of Gaussian, Inc.  The licensee
 of this program is prohibited from giving any competitor of
 Gaussian, Inc. access to this program.  By using this program,
 the user acknowledges that Gaussian, Inc. is engaged in the
 business of creating and licensing software in the field of
 computational chemistry and represents and warrants to the
 licensee that it is not a competitor of Gaussian, Inc. and that
 it will not use this program in any manner prohibited above.
 ---------------------------------------------------------------
  

 Cite this work as:
 Gaussian 09, Revision A.02,
 M. J. Frisch, G. W. Trucks, H. B. Schlegel, G. E. Scuseria, 
 M. A. Robb, J. R. Cheeseman, G. Scalmani, V. Barone, B. Mennucci, 
 G. A. Petersson, H. Nakatsuji, M. Caricato, X. Li, H. P. Hratchian, 
 A. F. Izmaylov, J. Bloino, G. Zheng, J. L. Sonnenberg, M. Hada, 
 M. Ehara, K. Toyota, R. Fukuda, J. Hasegawa, M. Ishida, T. Nakajima, 
 Y. Honda, O. Kitao, H. Nakai, T. Vreven, J. A. Montgomery, Jr., 
 J. E. Peralta, F. Ogliaro, M. Bearpark, J. J. Heyd, E. Brothers, 
 K. N. Kudin, V. N. Staroverov, R. Kobayashi, J. Normand, 
 K. Raghavachari, A. Rendell, J. C. Burant, S. S. Iyengar, J. Tomasi, 
 M. Cossi, N. Rega, J. M. Millam, M. Klene, J. E. Knox, J. B. Cross, 
 V. Bakken, C. Adamo, J. Jaramillo, R. Gomperts, R. E. Stratmann, 
 O. Yazyev, A. J. Austin, R. Cammi, C. Pomelli, J. W. Ochterski, 
 R. L. Martin, K. Morokuma, V. G. Zakrzewski, G. A. Voth, 
 P. Salvador, J. J. Dannenberg, S. Dapprich, A. D. Daniels, 
 O. Farkas, J. B. Foresman, J. V. Ortiz, J. Cioslowski, 
 and D. J. Fox, Gaussian, Inc., Wallingford CT, 2009.
 
 ******************************************
 Gaussian 09:  IA32W-G09RevA.02 11-Jun-2009
                23-Oct-2016 
 ******************************************
 %chk=D:\Gaussian Result\CrFeCO-\CrFeCO- OK_meng\CH4_full.chk
 ----------------------------
 # hf/3-21g opt freq pop=full
 ----------------------------
 1/18=20,19=15,38=1/1,3;
 2/9=110,12=2,17=6,18=5,40=1/2;
 3/5=5,11=9,16=1,25=1,30=1,71=1/1,2,3;
 4//1;
 5/5=2,38=5/2;
 6/7=3,28=1/1;
 7//1,2,3,16;
 1/18=20,19=15/3(2);
 2/9=110/2;
 99//99;
 2/9=110/2;
 3/5=5,11=9,16=1,25=1,30=1,71=1/1,2,3;
 4/5=5,16=3/1;
 5/5=2,38=5/2;
 7//1,2,3,16;
 1/18=20,19=15/3(-5);
 2/9=110/2;
 6/7=3,19=2,28=1/1;
 99/9=1/99;
 -------------------
 Title Card Required
 -------------------
 Symbolic Z-matrix:
 Charge =  0 Multiplicity = 1
 C                     3.02023  -0.38457  -0.87365 
 H                     3.37689  -1.39338  -0.87365 
 H                     3.37691   0.11983   0. 
 H                     3.37691   0.11983  -1.7473 
 H                     1.95023  -0.38456  -0.87365 
 

 GradGradGradGradGradGradGradGradGradGradGradGradGradGradGradGradGradGrad
 Berny optimization.
 Initialization pass.
                           ----------------------------
                           !    Initial Parameters    !
                           ! (Angstroms and Degrees)  !
 --------------------------                            --------------------------
 ! Name  Definition              Value          Derivative Info.                !
 --------------------------------------------------------------------------------
 ! R1    R(1,2)                  1.07           estimate D2E/DX2                !
 ! R2    R(1,3)                  1.07           estimate D2E/DX2                !
 ! R3    R(1,4)                  1.07           estimate D2E/DX2                !
 ! R4    R(1,5)                  1.07           estimate D2E/DX2                !
 ! A1    A(2,1,3)              109.4712         estimate D2E/DX2                !
 ! A2    A(2,1,4)              109.4712         estimate D2E/DX2                !
 ! A3    A(2,1,5)              109.4712         estimate D2E/DX2                !
 ! A4    A(3,1,4)              109.4713         estimate D2E/DX2                !
 ! A5    A(3,1,5)              109.4712         estimate D2E/DX2                !
 ! A6    A(4,1,5)              109.4712         estimate D2E/DX2                !
 ! D1    D(2,1,4,3)           -120.0            estimate D2E/DX2                !
 ! D2    D(2,1,5,3)            120.0            estimate D2E/DX2                !
 ! D3    D(2,1,5,4)           -120.0            estimate D2E/DX2                !
 ! D4    D(3,1,5,4)            120.0            estimate D2E/DX2                !
 --------------------------------------------------------------------------------
 Trust Radius=3.00D-01 FncErr=1.00D-07 GrdErr=1.00D-07
 Number of steps in this run=  24 maximum allowed number of steps= 100.
 GradGradGradGradGradGradGradGradGradGradGradGradGradGradGradGradGradGrad

                          Input orientation:                          
 ---------------------------------------------------------------------
 Center     Atomic      Atomic             Coordinates (Angstroms)
 Number     Number       Type             X           Y           Z
 ---------------------------------------------------------------------
      1          6           0        3.020233   -0.384572   -0.873652
      2          1           0        3.376888   -1.393382   -0.873652
      3          1           0        3.376906    0.119826    0.000000
      4          1           0        3.376906    0.119826   -1.747303
      5          1           0        1.950233   -0.384559   -0.873652
 ---------------------------------------------------------------------
                    Distance matrix (angstroms):
                    1          2          3          4          5
     1  C    0.000000
     2  H    1.070000   0.000000
     3  H    1.070000   1.747302   0.000000
     4  H    1.070000   1.747302   1.747303   0.000000
     5  H    1.070000   1.747303   1.747303   1.747303   0.000000
 Stoichiometry    CH4
 Framework group  T[O(C),4C3(H)]
 Deg. of freedom     1
 Full point group                 T       NOp  12
 Largest Abelian subgroup         D2      NOp   4
 Largest concise Abelian subgroup D2      NOp   4
                         Standard orientation:                         
 ---------------------------------------------------------------------
 Center     Atomic      Atomic             Coordinates (Angstroms)
 Number     Number       Type             X           Y           Z
 ---------------------------------------------------------------------
      1          6           0        0.000000    0.000000    0.000000
      2          1           0        0.617765    0.617765    0.617765
      3          1           0       -0.617765   -0.617765    0.617765
      4          1           0       -0.617765    0.617765   -0.617765
      5          1           0        0.617765   -0.617765   -0.617765
 ---------------------------------------------------------------------
 Rotational constants (GHZ):    164.2463759    164.2463759    164.2463759
 Standard basis: 3-21G (6D, 7F)
 There are     5 symmetry adapted basis functions of A   symmetry.
 There are     4 symmetry adapted basis functions of B1  symmetry.
 There are     4 symmetry adapted basis functions of B2  symmetry.
 There are     4 symmetry adapted basis functions of B3  symmetry.
 Integral buffers will be    262144 words long.
 Raffenetti 1 integral format.
 Two-electron integral symmetry is turned on.
    17 basis functions,    27 primitive gaussians,    17 cartesian basis functions
     5 alpha electrons        5 beta electrons
       nuclear repulsion energy        13.6865184431 Hartrees.
 NAtoms=    5 NActive=    5 NUniq=    2 SFac= 3.00D+00 NAtFMM=   80 NAOKFM=F Big=F
 One-electron integrals computed using PRISM.
 NBasis=    17 RedAO= T  NBF=     5     4     4     4
 NBsUse=    17 1.00D-06 NBFU=     5     4     4     4
 Harris functional with IExCor=  205 diagonalized for initial guess.
 ExpMin= 1.83D-01 ExpMax= 1.72D+02 ExpMxC= 1.72D+02 IAcc=1 IRadAn=         1 AccDes= 0.00D+00
 HarFok:  IExCor=  205 AccDes= 0.00D+00 IRadAn=         1 IDoV= 1
 ScaDFX=  1.000000  1.000000  1.000000  1.000000
 FoFCou: FMM=F IPFlag=           0 FMFlag=      100000 FMFlg1=           0
         NFxFlg=           0 DoJE=T BraDBF=F KetDBF=T FulRan=T
         Omega=  0.000000  0.000000  1.000000  0.000000  0.000000 ICntrl=     500 IOpCl=  0
         NMat0=    1 NMatS0=    1 NMatT0=    0 NMatD0=    1 NMtDS0=    0 NMtDT0=    0
         I1Cent=           4 NGrid=           0.
 Petite list used in FoFCou.
 Initial guess orbital symmetries:
       Occupied  (A) (A) (T) (T) (T)
       Virtual   (A) (T) (T) (T) (T) (T) (T) (A) (T) (T) (T) (A)
 The electronic state of the initial guess is 1-A.
 Requested convergence on RMS density matrix=1.00D-08 within 128 cycles.
 Requested convergence on MAX density matrix=1.00D-06.
 Requested convergence on             energy=1.00D-06.
 No special actions if energy rises.
 Keep R1 ints in memory in canonical form, NReq=831600.
 SCF Done:  E(RHF) =  -39.9764058491     A.U. after    8 cycles
             Convg  =    0.4151D-09             -V/T =  2.0003

 **********************************************************************

            Population analysis using the SCF density.

 **********************************************************************

 Orbital symmetries:
       Occupied  (A) (A) (T) (T) (T)
       Virtual   (A) (T) (T) (T) (T) (T) (T) (A) (T) (T) (T) (A)
 The electronic state is 1-A.
 Alpha  occ. eigenvalues --  -11.13826  -0.95125  -0.54830  -0.54830  -0.54830
 Alpha virt. eigenvalues --    0.30001   0.35670   0.35670   0.35670   0.91538
 Alpha virt. eigenvalues --    0.91538   0.91538   1.35396   1.37170   1.37170
 Alpha virt. eigenvalues --    1.37170   1.96130
     Molecular Orbital Coefficients:
                           1         2         3         4         5
                        (A)--O    (A)--O    (T)--O    (T)--O    (T)--O
     Eigenvalues --   -11.13826  -0.95125  -0.54830  -0.54830  -0.54830
   1 1   C  1S          0.98707  -0.20945   0.00000   0.00000   0.00000
   2        2S          0.09964   0.20327   0.00000   0.00000   0.00000
   3        2PX         0.00000   0.00000   0.00000   0.37657   0.00000
   4        2PY         0.00000   0.00000   0.00000   0.00000   0.37657
   5        2PZ         0.00000   0.00000   0.37657   0.00000   0.00000
   6        3S         -0.07354   0.61213   0.00000   0.00000   0.00000
   7        3PX         0.00000   0.00000   0.00000   0.30854   0.00000
   8        3PY         0.00000   0.00000   0.00000   0.00000   0.30854
   9        3PZ         0.00000   0.00000   0.30854   0.00000   0.00000
  10 2   H  1S         -0.00067   0.12439   0.16029   0.16029   0.16029
  11        2S          0.01445   0.02002   0.14725   0.14725   0.14725
  12 3   H  1S         -0.00067   0.12439   0.16029  -0.16029  -0.16029
  13        2S          0.01445   0.02002   0.14725  -0.14725  -0.14725
  14 4   H  1S         -0.00067   0.12439  -0.16029  -0.16029   0.16029
  15        2S          0.01445   0.02002  -0.14725  -0.14725   0.14725
  16 5   H  1S         -0.00067   0.12439  -0.16029   0.16029  -0.16029
  17        2S          0.01445   0.02002  -0.14725   0.14725  -0.14725
                           6         7         8         9        10
                        (A)--V    (T)--V    (T)--V    (T)--V    (T)--V
     Eigenvalues --     0.30001   0.35670   0.35670   0.35670   0.91538
   1 1   C  1S         -0.17829   0.00000   0.00000   0.00000   0.00000
   2        2S          0.03887   0.00000   0.00000   0.00000   0.00000
   3        2PX         0.00000   0.26547   0.00000   0.00000   0.00000
   4        2PY         0.00000   0.00000   0.00000   0.26547   0.00000
   5        2PZ         0.00000   0.00000   0.26547   0.00000  -0.73625
   6        3S          2.58949   0.00000   0.00000   0.00000   0.00000
   7        3PX         0.00000   1.45506   0.00000   0.00000   0.00000
   8        3PY         0.00000   0.00000   0.00000   1.45506   0.00000
   9        3PZ         0.00000   0.00000   1.45506   0.00000   1.25711
  10 2   H  1S          0.00808  -0.04696  -0.04696  -0.04696  -0.37781
  11        2S         -0.97126  -1.07013  -1.07013  -1.07013   0.00670
  12 3   H  1S          0.00808   0.04696  -0.04696   0.04696  -0.37781
  13        2S         -0.97126   1.07013  -1.07013   1.07013   0.00670
  14 4   H  1S          0.00808   0.04696   0.04696  -0.04696   0.37781
  15        2S         -0.97126   1.07013   1.07013  -1.07013  -0.00670
  16 5   H  1S          0.00808  -0.04696   0.04696   0.04696   0.37781
  17        2S         -0.97126  -1.07013   1.07013   1.07013  -0.00670
                          11        12        13        14        15
                        (T)--V    (T)--V    (A)--V    (T)--V    (T)--V
     Eigenvalues --     0.91538   0.91538   1.35396   1.37170   1.37170
   1 1   C  1S          0.00000   0.00000   0.13342   0.00000   0.00000
   2        2S          0.00000   0.00000  -0.12646   0.00000   0.00000
   3        2PX        -0.73625   0.00000   0.00000  -0.87717   0.00000
   4        2PY         0.00000  -0.73625   0.00000   0.00000   0.00000
   5        2PZ         0.00000   0.00000   0.00000   0.00000  -0.87717
   6        3S          0.00000   0.00000  -0.41185   0.00000   0.00000
   7        3PX         1.25711   0.00000   0.00000   0.99293   0.00000
   8        3PY         0.00000   1.25711   0.00000   0.00000   0.00000
   9        3PZ         0.00000   0.00000   0.00000   0.00000   0.99293
  10 2   H  1S         -0.37781  -0.37781   0.67697   0.54026   0.54026
  11        2S          0.00670   0.00670  -0.22380  -0.82222  -0.82222
  12 3   H  1S          0.37781   0.37781   0.67697  -0.54026   0.54026
  13        2S         -0.00670  -0.00670  -0.22380   0.82222  -0.82222
  14 4   H  1S          0.37781  -0.37781   0.67697  -0.54026  -0.54026
  15        2S         -0.00670   0.00670  -0.22380   0.82222   0.82222
  16 5   H  1S         -0.37781   0.37781   0.67697   0.54026  -0.54026
  17        2S          0.00670  -0.00670  -0.22380  -0.82222   0.82222
                          16        17
                        (T)--V    (A)--V
     Eigenvalues --     1.37170   1.96130
   1 1   C  1S          0.00000  -0.01745
   2        2S          0.00000  -2.01042
   3        2PX         0.00000   0.00000
   4        2PY        -0.87717   0.00000
   5        2PZ         0.00000   0.00000
   6        3S          0.00000   4.01092
   7        3PX         0.00000   0.00000
   8        3PY         0.99293   0.00000
   9        3PZ         0.00000   0.00000
  10 2   H  1S          0.54026  -0.13636
  11        2S         -0.82222  -0.80008
  12 3   H  1S         -0.54026  -0.13636
  13        2S          0.82222  -0.80008
  14 4   H  1S          0.54026  -0.13636
  15        2S         -0.82222  -0.80008
  16 5   H  1S         -0.54026  -0.13636
  17        2S          0.82222  -0.80008
     Density Matrix:
                           1         2         3         4         5
   1 1   C  1S          2.03635
   2        2S          0.11156   0.10250
   3        2PX         0.00000   0.00000   0.28362
   4        2PY         0.00000   0.00000   0.00000   0.28362
   5        2PZ         0.00000   0.00000   0.00000   0.00000   0.28362
   6        3S         -0.40160   0.23421   0.00000   0.00000   0.00000
   7        3PX         0.00000   0.00000   0.23237   0.00000   0.00000
   8        3PY         0.00000   0.00000   0.00000   0.23237   0.00000
   9        3PZ         0.00000   0.00000   0.00000   0.00000   0.23237
  10 2   H  1S         -0.05343   0.05044   0.12072   0.12072   0.12072
  11        2S          0.02014   0.01102   0.11090   0.11090   0.11090
  12 3   H  1S         -0.05343   0.05044  -0.12072  -0.12072   0.12072
  13        2S          0.02014   0.01102  -0.11090  -0.11090   0.11090
  14 4   H  1S         -0.05343   0.05044  -0.12072   0.12072  -0.12072
  15        2S          0.02014   0.01102  -0.11090   0.11090  -0.11090
  16 5   H  1S         -0.05343   0.05044   0.12072  -0.12072  -0.12072
  17        2S          0.02014   0.01102   0.11090  -0.11090  -0.11090
                           6         7         8         9        10
   6        3S          0.76023
   7        3PX         0.00000   0.19039
   8        3PY         0.00000   0.00000   0.19039
   9        3PZ         0.00000   0.00000   0.00000   0.19039
  10 2   H  1S          0.15238   0.09891   0.09891   0.09891   0.18510
  11        2S          0.02239   0.09086   0.09086   0.09086   0.14658
  12 3   H  1S          0.15238  -0.09891  -0.09891   0.09891  -0.02044
  13        2S          0.02239  -0.09086  -0.09086   0.09086  -0.04224
  14 4   H  1S          0.15238  -0.09891   0.09891  -0.09891  -0.02044
  15        2S          0.02239  -0.09086   0.09086  -0.09086  -0.04224
  16 5   H  1S          0.15238   0.09891  -0.09891  -0.09891  -0.02044
  17        2S          0.02239   0.09086  -0.09086  -0.09086  -0.04224
                          11        12        13        14        15
  11        2S          0.13131
  12 3   H  1S         -0.04224   0.18510
  13        2S         -0.04214   0.14658   0.13131
  14 4   H  1S         -0.04224  -0.02044  -0.04224   0.18510
  15        2S         -0.04214  -0.04224  -0.04214   0.14658   0.13131
  16 5   H  1S         -0.04224  -0.02044  -0.04224  -0.02044  -0.04224
  17        2S         -0.04214  -0.04224  -0.04214  -0.04224  -0.04214
                          16        17
  16 5   H  1S          0.18510
  17        2S          0.14658   0.13131
    Full Mulliken population analysis:
                           1         2         3         4         5
   1 1   C  1S          2.03635
   2        2S          0.02136   0.10250
   3        2PX         0.00000   0.00000   0.28362
   4        2PY         0.00000   0.00000   0.00000   0.28362
   5        2PZ         0.00000   0.00000   0.00000   0.00000   0.28362
   6        3S         -0.07241   0.17831   0.00000   0.00000   0.00000
   7        3PX         0.00000   0.00000   0.12292   0.00000   0.00000
   8        3PY         0.00000   0.00000   0.00000   0.12292   0.00000
   9        3PZ         0.00000   0.00000   0.00000   0.00000   0.12292
  10 2   H  1S         -0.00113   0.01042   0.02143   0.02143   0.02143
  11        2S          0.00167   0.00452   0.01511   0.01511   0.01511
  12 3   H  1S         -0.00113   0.01042   0.02143   0.02143   0.02143
  13        2S          0.00167   0.00452   0.01511   0.01511   0.01511
  14 4   H  1S         -0.00113   0.01042   0.02143   0.02143   0.02143
  15        2S          0.00167   0.00452   0.01511   0.01511   0.01511
  16 5   H  1S         -0.00113   0.01042   0.02143   0.02143   0.02143
  17        2S          0.00167   0.00452   0.01511   0.01511   0.01511
                           6         7         8         9        10
   6        3S          0.76023
   7        3PX         0.00000   0.19039
   8        3PY         0.00000   0.00000   0.19039
   9        3PZ         0.00000   0.00000   0.00000   0.19039
  10 2   H  1S          0.05289   0.02892   0.02892   0.02892   0.18510
  11        2S          0.01519   0.03079   0.03079   0.03079   0.09467
  12 3   H  1S          0.05289   0.02892   0.02892   0.02892  -0.00019
  13        2S          0.01519   0.03079   0.03079   0.03079  -0.00525
  14 4   H  1S          0.05289   0.02892   0.02892   0.02892  -0.00019
  15        2S          0.01519   0.03079   0.03079   0.03079  -0.00525
  16 5   H  1S          0.05289   0.02892   0.02892   0.02892  -0.00019
  17        2S          0.01519   0.03079   0.03079   0.03079  -0.00525
                          11        12        13        14        15
  11        2S          0.13131
  12 3   H  1S         -0.00525   0.18510
  13        2S         -0.01552   0.09467   0.13131
  14 4   H  1S         -0.00525  -0.00019  -0.00525   0.18510
  15        2S         -0.01552  -0.00525  -0.01552   0.09467   0.13131
  16 5   H  1S         -0.00525  -0.00019  -0.00525  -0.00019  -0.00525
  17        2S         -0.01552  -0.00525  -0.01552  -0.00525  -0.01552
                          16        17
  16 5   H  1S          0.18510
  17        2S          0.09467   0.13131
     Gross orbital populations:
                           1
   1 1   C  1S          1.98746
   2        2S          0.36192
   3        2PX         0.55269
   4        2PY         0.55269
   5        2PZ         0.55269
   6        3S          1.13846
   7        3PX         0.55215
   8        3PY         0.55215
   9        3PZ         0.55215
  10 2   H  1S          0.47670
  11        2S          0.32272
  12 3   H  1S          0.47670
  13        2S          0.32272
  14 4   H  1S          0.47670
  15        2S          0.32272
  16 5   H  1S          0.47670
  17        2S          0.32272
          Condensed to atoms (all electrons):
              1          2          3          4          5
     1  C    5.313108   0.372312   0.372312   0.372312   0.372312
     2  H    0.372312   0.505758  -0.026219  -0.026219  -0.026219
     3  H    0.372312  -0.026219   0.505758  -0.026219  -0.026219
     4  H    0.372312  -0.026219  -0.026219   0.505758  -0.026219
     5  H    0.372312  -0.026219  -0.026219  -0.026219   0.505758
 Mulliken atomic charges:
              1
     1  C   -0.802355
     2  H    0.200589
     3  H    0.200589
     4  H    0.200589
     5  H    0.200589
 Sum of Mulliken atomic charges =   0.00000
 Mulliken charges with hydrogens summed into heavy atoms:
              1
     1  C    0.000000
 Sum of Mulliken charges with hydrogens summed into heavy atoms =   0.00000
 Electronic spatial extent (au):  <R**2>=             34.9949
 Charge=              0.0000 electrons
 Dipole moment (field-independent basis, Debye):
    X=              0.0000    Y=              0.0000    Z=              0.0000  Tot=              0.0000
 Quadrupole moment (field-independent basis, Debye-Ang):
   XX=             -8.3575   YY=             -8.3575   ZZ=             -8.3575
   XY=              0.0000   XZ=              0.0000   YZ=              0.0000
 Traceless Quadrupole moment (field-independent basis, Debye-Ang):
   XX=              0.0000   YY=              0.0000   ZZ=              0.0000
   XY=              0.0000   XZ=              0.0000   YZ=              0.0000
 Octapole moment (field-independent basis, Debye-Ang**2):
  XXX=              0.0000  YYY=              0.0000  ZZZ=              0.0000  XYY=              0.0000
  XXY=              0.0000  XXZ=              0.0000  XZZ=              0.0000  YZZ=              0.0000
  YYZ=              0.0000  XYZ=              0.6836
 Hexadecapole moment (field-independent basis, Debye-Ang**3):
 XXXX=            -15.0377 YYYY=            -15.0377 ZZZZ=            -15.0377 XXXY=              0.0000
 XXXZ=              0.0000 YYYX=              0.0000 YYYZ=              0.0000 ZZZX=              0.0000
 ZZZY=              0.0000 XXYY=             -4.5929 XXZZ=             -4.5929 YYZZ=             -4.5929
 XXYZ=              0.0000 YYXZ=              0.0000 ZZXY=              0.0000
 N-N= 1.368651844314D+01 E-N=-1.198200648692D+02  KE= 3.996302497122D+01
 Symmetry A    KE= 3.424875327226D+01
 Symmetry B1   KE= 1.904757232986D+00
 Symmetry B2   KE= 1.904757232986D+00
 Symmetry B3   KE= 1.904757232986D+00
 Orbital energies and kinetic energies (alpha):
                                 1                 2
   1         (A)--O          -11.138263         15.869057
   2         (A)--O           -0.951247          1.255320
   3         (T)--O           -0.548298          0.952379
   4         (T)--O           -0.548298          0.952379
   5         (T)--O           -0.548298          0.952379
   6         (A)--V            0.300010          1.035276
   7         (T)--V            0.356702          0.811225
   8         (T)--V            0.356702          0.811225
   9         (T)--V            0.356702          0.811225
  10         (T)--V            0.915383          1.882317
  11         (T)--V            0.915383          1.882317
  12         (T)--V            0.915383          1.882317
  13         (A)--V            1.353961          2.779861
  14         (T)--V            1.371698          3.066793
  15         (T)--V            1.371698          3.066793
  16         (T)--V            1.371698          3.066793
  17         (A)--V            1.961299          3.129412
 Total kinetic energy from orbitals= 3.996302497122D+01
 Calling FoFJK, ICntrl=      2127 FMM=F ISym2X=1 I1Cent= 0 IOpClX= 0 NMat=1 NMatS=1 NMatT=0.
 ***** Axes restored to original set *****
 -------------------------------------------------------------------
 Center     Atomic                   Forces (Hartrees/Bohr)
 Number     Number              X              Y              Z
 -------------------------------------------------------------------
      1        6           0.000000000    0.000000000    0.000000000
      2        1           0.003263586   -0.009231170   -0.000000008
      3        1           0.003263760    0.004615521    0.007994394
      4        1           0.003263747    0.004615531   -0.007994393
      5        1          -0.009791092    0.000000119    0.000000008
 -------------------------------------------------------------------
 Cartesian Forces:  Max     0.009791092 RMS     0.005056098

 GradGradGradGradGradGradGradGradGradGradGradGradGradGradGradGradGradGrad
 Berny optimization.
 Internal  Forces:  Max     0.009791092 RMS     0.005233559
 Search for a local minimum.
 Step number   1 out of a maximum of   24
 All quantities printed in internal units (Hartrees-Bohrs-Radians)
 Mixed Optimization -- RFO/linear search
 Second derivative matrix not updated -- first step.
 The second derivative matrix:
                          R1        R2        R3        R4        A1
           R1           0.37230
           R2           0.00000   0.37230
           R3           0.00000   0.00000   0.37230
           R4           0.00000   0.00000   0.00000   0.37230
           A1           0.00000   0.00000   0.00000   0.00000   0.16000
           A2           0.00000   0.00000   0.00000   0.00000   0.00000
           A3           0.00000   0.00000   0.00000   0.00000   0.00000
           A4           0.00000   0.00000   0.00000   0.00000   0.00000
           A5           0.00000   0.00000   0.00000   0.00000   0.00000
           A6           0.00000   0.00000   0.00000   0.00000   0.00000
           D1           0.00000   0.00000   0.00000   0.00000   0.00000
           D2           0.00000   0.00000   0.00000   0.00000   0.00000
           D3           0.00000   0.00000   0.00000   0.00000   0.00000
           D4           0.00000   0.00000   0.00000   0.00000   0.00000
                          A2        A3        A4        A5        A6
           A2           0.16000
           A3           0.00000   0.16000
           A4           0.00000   0.00000   0.16000
           A5           0.00000   0.00000   0.00000   0.16000
           A6           0.00000   0.00000   0.00000   0.00000   0.16000
           D1           0.00000   0.00000   0.00000   0.00000   0.00000
           D2           0.00000   0.00000   0.00000   0.00000   0.00000
           D3           0.00000   0.00000   0.00000   0.00000   0.00000
           D4           0.00000   0.00000   0.00000   0.00000   0.00000
                          D1        D2        D3        D4
           D1           0.00499
           D2           0.00000   0.00499
           D3           0.00000   0.00000   0.00499
           D4           0.00000   0.00000   0.00000   0.00499
     Eigenvalues ---    0.05269   0.05891   0.08766   0.16000   0.16000
     Eigenvalues ---    0.37230   0.37230   0.37230   0.372301000.00000
     Eigenvalues --- 1000.000001000.000001000.000001000.00000
 RFO step:  Lambda=-1.02713650D-03 EMin= 5.26880999D-02
 Linear search not attempted -- first point.
 Iteration  1 RMS(Cart)=  0.01401865 RMS(Int)=  0.00000000
 Iteration  2 RMS(Cart)=  0.00000000 RMS(Int)=  0.00000000
 ClnCor:  largest displacement from symmetrization is 1.46D-14 for atom     3.
 Variable       Old X    -DE/DX   Delta X   Delta X   Delta X     New X
                                 (Linear)    (Quad)   (Total)
    R1        2.02201   0.00979   0.00000   0.02623   0.02623   2.04823
    R2        2.02201   0.00979   0.00000   0.02623   0.02623   2.04823
    R3        2.02201   0.00979   0.00000   0.02623   0.02623   2.04823
    R4        2.02201   0.00979   0.00000   0.02623   0.02623   2.04823
    A1        1.91063   0.00000   0.00000   0.00000   0.00000   1.91063
    A2        1.91063   0.00000   0.00000   0.00000   0.00000   1.91063
    A3        1.91063   0.00000   0.00000   0.00000   0.00000   1.91063
    A4        1.91063   0.00000   0.00000   0.00000   0.00000   1.91063
    A5        1.91063   0.00000   0.00000   0.00000   0.00000   1.91063
    A6        1.91063   0.00000   0.00000   0.00000   0.00000   1.91063
    D1       -2.09440   0.00000   0.00000   0.00000   0.00000  -2.09440
    D2        2.09440   0.00000   0.00000   0.00000   0.00000   2.09440
    D3       -2.09440   0.00000   0.00000   0.00000   0.00000  -2.09440
    D4        2.09440   0.00000   0.00000   0.00000   0.00000   2.09440
         Item               Value     Threshold  Converged?
 Maximum Force            0.009791     0.000450     NO 
 RMS     Force            0.005234     0.000300     NO 
 Maximum Displacement     0.026226     0.001800     NO 
 RMS     Displacement     0.014019     0.001200     NO 
 Predicted change in Energy=-5.149852D-04
 GradGradGradGradGradGradGradGradGradGradGradGradGradGradGradGradGradGrad

                          Input orientation:                          
 ---------------------------------------------------------------------
 Center     Atomic      Atomic             Coordinates (Angstroms)
 Number     Number       Type             X           Y           Z
 ---------------------------------------------------------------------
      1          6           0        3.020233   -0.384573   -0.873652
      2          1           0        3.381514   -1.406467   -0.873652
      3          1           0        3.381533    0.126368    0.011332
      4          1           0        3.381532    0.126369   -1.758635
      5          1           0        1.936355   -0.384559   -0.873651
 ---------------------------------------------------------------------
                    Distance matrix (angstroms):
                    1          2          3          4          5
     1  C    0.000000
     2  H    1.083878   0.000000
     3  H    1.083878   1.769966   0.000000
     4  H    1.083878   1.769966   1.769966   0.000000
     5  H    1.083878   1.769966   1.769966   1.769966   0.000000
 Stoichiometry    CH4
 Framework group  TD[O(C),4C3(H)]
 Deg. of freedom     1
 Full point group                 TD      NOp  24
 Omega: Change in point group or standard orientation.

 Old FWG=T    [O(C1),4C3(H1)]
 New FWG=TD   [O(C1),4C3(H1)]
 Largest Abelian subgroup         D2      NOp   4
 Largest concise Abelian subgroup D2      NOp   4
                         Standard orientation:                         
 ---------------------------------------------------------------------
 Center     Atomic      Atomic             Coordinates (Angstroms)
 Number     Number       Type             X           Y           Z
 ---------------------------------------------------------------------
      1          6           0        0.000000    0.000000    0.000000
      2          1           0        0.625778    0.625778    0.625778
      3          1           0       -0.625778   -0.625778    0.625778
      4          1           0       -0.625778    0.625778   -0.625778
      5          1           0        0.625778   -0.625778   -0.625778
 ---------------------------------------------------------------------
 Rotational constants (GHZ):    160.0671361    160.0671361    160.0671361
 Standard basis: 3-21G (6D, 7F)
 There are     5 symmetry adapted basis functions of A   symmetry.
 There are     4 symmetry adapted basis functions of B1  symmetry.
 There are     4 symmetry adapted basis functions of B2  symmetry.
 There are     4 symmetry adapted basis functions of B3  symmetry.
 Integral buffers will be    262144 words long.
 Raffenetti 1 integral format.
 Two-electron integral symmetry is turned on.
    17 basis functions,    27 primitive gaussians,    17 cartesian basis functions
     5 alpha electrons        5 beta electrons
       nuclear repulsion energy        13.5112701192 Hartrees.
 NAtoms=    5 NActive=    5 NUniq=    2 SFac= 3.00D+00 NAtFMM=   80 NAOKFM=F Big=F
 One-electron integrals computed using PRISM.
 NBasis=    17 RedAO= T  NBF=     5     4     4     4
 NBsUse=    17 1.00D-06 NBFU=     5     4     4     4
 Initial guess read from the read-write file.
 B after Tr=     0.000000    0.000000    0.000000
         Rot=    1.000000    0.000000    0.000000    0.000000 Ang=   0.00 deg.
 Initial guess orbital symmetries:
       Occupied  (A1) (A1) (T2) (T2) (T2)
       Virtual   (A1) (T2) (T2) (T2) (T2) (T2) (T2) (A1) (T2) (T2)
                 (T2) (A1)
 Harris functional with IExCor=  205 diagonalized for initial guess.
 ExpMin= 1.83D-01 ExpMax= 1.72D+02 ExpMxC= 1.72D+02 IAcc=1 IRadAn=         1 AccDes= 0.00D+00
 HarFok:  IExCor=  205 AccDes= 0.00D+00 IRadAn=         1 IDoV= 1
 ScaDFX=  1.000000  1.000000  1.000000  1.000000
 FoFCou: FMM=F IPFlag=           0 FMFlag=      100000 FMFlg1=           0
         NFxFlg=           0 DoJE=T BraDBF=F KetDBF=T FulRan=T
         Omega=  0.000000  0.000000  1.000000  0.000000  0.000000 ICntrl=     500 IOpCl=  0
         NMat0=    1 NMatS0=    1 NMatT0=    0 NMatD0=    1 NMtDS0=    0 NMtDT0=    0
         I1Cent=           4 NGrid=           0.
 Petite list used in FoFCou.
 Requested convergence on RMS density matrix=1.00D-08 within 128 cycles.
 Requested convergence on MAX density matrix=1.00D-06.
 Requested convergence on             energy=1.00D-06.
 No special actions if energy rises.
 Keep R1 ints in memory in canonical form, NReq=831666.
 SCF Done:  E(RHF) =  -39.9768749251     A.U. after    7 cycles
             Convg  =    0.7492D-08             -V/T =  2.0024
 Calling FoFJK, ICntrl=      2127 FMM=F ISym2X=1 I1Cent= 0 IOpClX= 0 NMat=1 NMatS=1 NMatT=0.
 ***** Axes restored to original set *****
 -------------------------------------------------------------------
 Center     Atomic                   Forces (Hartrees/Bohr)
 Number     Number              X              Y              Z
 -------------------------------------------------------------------
      1        6           0.000000000    0.000000000    0.000000000
      2        1          -0.000237680    0.000672287    0.000000001
      3        1          -0.000237693   -0.000336139   -0.000582215
      4        1          -0.000237692   -0.000336139    0.000582215
      5        1           0.000713065   -0.000000009   -0.000000001
 -------------------------------------------------------------------
 Cartesian Forces:  Max     0.000713065 RMS     0.000368225

 GradGradGradGradGradGradGradGradGradGradGradGradGradGradGradGradGradGrad
 Berny optimization.
 Using GEDIIS/GDIIS optimizer.
 Internal  Forces:  Max     0.000713065 RMS     0.000381149
 Search for a local minimum.
 Step number   2 out of a maximum of   24
 All quantities printed in internal units (Hartrees-Bohrs-Radians)
 Mixed Optimization -- En-DIIS/RFO-DIIS
 Update second derivatives using D2CorX and points    1    2
 DE= -4.69D-04 DEPred=-5.15D-04 R= 9.11D-01
 SS=  1.41D+00  RLast= 5.25D-02 DXNew= 5.0454D-01 1.5736D-01
 Trust test= 9.11D-01 RLast= 5.25D-02 DXMaxT set to 3.00D-01
 The second derivative matrix:
                          R1        R2        R3        R4        A1
           R1           0.37936
           R2           0.00705   0.37936
           R3           0.00705   0.00705   0.37936
           R4           0.00705   0.00705   0.00705   0.37936
           A1           0.00000   0.00000   0.00000   0.00000   0.16000
           A2           0.00000   0.00000   0.00000   0.00000   0.00000
           A3           0.00000   0.00000   0.00000   0.00000   0.00000
           A4           0.00000   0.00000   0.00000   0.00000   0.00000
           A5           0.00000   0.00000   0.00000   0.00000   0.00000
           A6           0.00000   0.00000   0.00000   0.00000   0.00000
           D1           0.00000   0.00000   0.00000   0.00000   0.00000
           D2           0.00000   0.00000   0.00000   0.00000   0.00000
           D3           0.00000   0.00000   0.00000   0.00000   0.00000
           D4           0.00000   0.00000   0.00000   0.00000   0.00000
                          A2        A3        A4        A5        A6
           A2           0.16000
           A3           0.00000   0.16000
           A4           0.00000   0.00000   0.16000
           A5           0.00000   0.00000   0.00000   0.16000
           A6           0.00000   0.00000   0.00000   0.00000   0.16000
           D1           0.00000   0.00000   0.00000   0.00000   0.00000
           D2           0.00000   0.00000   0.00000   0.00000   0.00000
           D3           0.00000   0.00000   0.00000   0.00000   0.00000
           D4           0.00000   0.00000   0.00000   0.00000   0.00000
                          D1        D2        D3        D4
           D1           0.00499
           D2           0.00000   0.00499
           D3           0.00000   0.00000   0.00499
           D4           0.00000   0.00000   0.00000   0.00499
 Use linear search instead of GDIIS.
     Eigenvalues ---    0.05269   0.05891   0.08766   0.16000   0.16000
     Eigenvalues ---    0.37230   0.37230   0.37230   0.400521000.00000
     Eigenvalues --- 1000.000001000.000001000.000001000.00000
 RFO step:  Lambda= 0.00000000D+00 EMin= 5.26880999D-02
 Quartic linear search produced a step of -0.07040.
 Iteration  1 RMS(Cart)=  0.00098688 RMS(Int)=  0.00000000
 Iteration  2 RMS(Cart)=  0.00000000 RMS(Int)=  0.00000000
 ClnCor:  largest displacement from symmetrization is 8.56D-15 for atom     5.
 Variable       Old X    -DE/DX   Delta X   Delta X   Delta X     New X
                                 (Linear)    (Quad)   (Total)
    R1        2.04823  -0.00071  -0.00185   0.00000  -0.00185   2.04639
    R2        2.04823  -0.00071  -0.00185   0.00000  -0.00185   2.04639
    R3        2.04823  -0.00071  -0.00185   0.00000  -0.00185   2.04639
    R4        2.04823  -0.00071  -0.00185   0.00000  -0.00185   2.04639
    A1        1.91063   0.00000   0.00000   0.00000   0.00000   1.91063
    A2        1.91063   0.00000   0.00000   0.00000   0.00000   1.91063
    A3        1.91063   0.00000   0.00000   0.00000   0.00000   1.91063
    A4        1.91063   0.00000   0.00000   0.00000   0.00000   1.91063
    A5        1.91063   0.00000   0.00000   0.00000   0.00000   1.91063
    A6        1.91063   0.00000   0.00000   0.00000   0.00000   1.91063
    D1       -2.09440   0.00000   0.00000   0.00000   0.00000  -2.09440
    D2        2.09440   0.00000   0.00000   0.00000   0.00000   2.09440
    D3       -2.09440   0.00000   0.00000   0.00000   0.00000  -2.09440
    D4        2.09440   0.00000   0.00000   0.00000   0.00000   2.09440
         Item               Value     Threshold  Converged?
 Maximum Force            0.000713     0.000450     NO 
 RMS     Force            0.000381     0.000300     NO 
 Maximum Displacement     0.001846     0.001800     NO 
 RMS     Displacement     0.000987     0.001200     YES
 Predicted change in Energy=-2.535543D-06
 GradGradGradGradGradGradGradGradGradGradGradGradGradGradGradGradGradGrad

                          Input orientation:                          
 ---------------------------------------------------------------------
 Center     Atomic      Atomic             Coordinates (Angstroms)
 Number     Number       Type             X           Y           Z
 ---------------------------------------------------------------------
      1          6           0        3.020233   -0.384573   -0.873652
      2          1           0        3.381188   -1.405546   -0.873652
      3          1           0        3.381207    0.125907    0.010534
      4          1           0        3.381206    0.125908   -1.757837
      5          1           0        1.937332   -0.384559   -0.873651
 ---------------------------------------------------------------------
                    Distance matrix (angstroms):
                    1          2          3          4          5
     1  C    0.000000
     2  H    1.082901   0.000000
     3  H    1.082901   1.768371   0.000000
     4  H    1.082901   1.768371   1.768371   0.000000
     5  H    1.082901   1.768371   1.768371   1.768371   0.000000
 Stoichiometry    CH4
 Framework group  TD[O(C),4C3(H)]
 Deg. of freedom     1
 Full point group                 TD      NOp  24
 Largest Abelian subgroup         D2      NOp   4
 Largest concise Abelian subgroup D2      NOp   4
                         Standard orientation:                         
 ---------------------------------------------------------------------
 Center     Atomic      Atomic             Coordinates (Angstroms)
 Number     Number       Type             X           Y           Z
 ---------------------------------------------------------------------
      1          6           0        0.000000    0.000000    0.000000
      2          1           0        0.625213    0.625213    0.625213
      3          1           0       -0.625213   -0.625213    0.625213
      4          1           0       -0.625213    0.625213   -0.625213
      5          1           0        0.625213   -0.625213   -0.625213
 ---------------------------------------------------------------------
 Rotational constants (GHZ):    160.3560971    160.3560971    160.3560971
 Standard basis: 3-21G (6D, 7F)
 There are     5 symmetry adapted basis functions of A   symmetry.
 There are     4 symmetry adapted basis functions of B1  symmetry.
 There are     4 symmetry adapted basis functions of B2  symmetry.
 There are     4 symmetry adapted basis functions of B3  symmetry.
 Integral buffers will be    262144 words long.
 Raffenetti 1 integral format.
 Two-electron integral symmetry is turned on.
    17 basis functions,    27 primitive gaussians,    17 cartesian basis functions
     5 alpha electrons        5 beta electrons
       nuclear repulsion energy        13.5234602233 Hartrees.
 NAtoms=    5 NActive=    5 NUniq=    2 SFac= 3.00D+00 NAtFMM=   80 NAOKFM=F Big=F
 One-electron integrals computed using PRISM.
 NBasis=    17 RedAO= T  NBF=     5     4     4     4
 NBsUse=    17 1.00D-06 NBFU=     5     4     4     4
 Initial guess read from the read-write file.
 B after Tr=     0.000000    0.000000    0.000000
         Rot=    1.000000    0.000000    0.000000    0.000000 Ang=   0.00 deg.
 Initial guess orbital symmetries:
       Occupied  (A1) (A1) (T2) (T2) (T2)
       Virtual   (A1) (T2) (T2) (T2) (T2) (T2) (T2) (A1) (T2) (T2)
                 (T2) (A1)
 Requested convergence on RMS density matrix=1.00D-08 within 128 cycles.
 Requested convergence on MAX density matrix=1.00D-06.
 Requested convergence on             energy=1.00D-06.
 No special actions if energy rises.
 Keep R1 ints in memory in canonical form, NReq=831666.
 SCF Done:  E(RHF) =  -39.9768775602     A.U. after    6 cycles
             Convg  =    0.3210D-08             -V/T =  2.0022
 Calling FoFJK, ICntrl=      2127 FMM=F ISym2X=1 I1Cent= 0 IOpClX= 0 NMat=1 NMatS=1 NMatT=0.
 ***** Axes restored to original set *****
 -------------------------------------------------------------------
 Center     Atomic                   Forces (Hartrees/Bohr)
 Number     Number              X              Y              Z
 -------------------------------------------------------------------
      1        6           0.000000000    0.000000000    0.000000000
      2        1           0.000000032   -0.000000092    0.000000000
      3        1           0.000000032    0.000000046    0.000000079
      4        1           0.000000032    0.000000046   -0.000000079
      5        1          -0.000000097    0.000000000    0.000000000
 -------------------------------------------------------------------
 Cartesian Forces:  Max     0.000000097 RMS     0.000000050

 GradGradGradGradGradGradGradGradGradGradGradGradGradGradGradGradGradGrad
 Berny optimization.
 Using GEDIIS/GDIIS optimizer.
 Internal  Forces:  Max     0.000000097 RMS     0.000000052
 Search for a local minimum.
 Step number   3 out of a maximum of   24
 All quantities printed in internal units (Hartrees-Bohrs-Radians)
 Mixed Optimization -- En-DIIS/RFO-DIIS
 Swaping is turned off.
 Update second derivatives using D2CorX and points    1    2    3
 DE= -2.64D-06 DEPred=-2.54D-06 R= 1.04D+00
 SS=  1.41D+00  RLast= 3.69D-03 DXNew= 5.0454D-01 1.1078D-02
 Trust test= 1.04D+00 RLast= 3.69D-03 DXMaxT set to 3.00D-01
 The second derivative matrix:
                          R1        R2        R3        R4        A1
           R1           0.37579
           R2           0.00349   0.37579
           R3           0.00349   0.00349   0.37579
           R4           0.00349   0.00349   0.00349   0.37579
           A1           0.00000   0.00000   0.00000   0.00000   0.16000
           A2           0.00000   0.00000   0.00000   0.00000   0.00000
           A3           0.00000   0.00000   0.00000   0.00000   0.00000
           A4           0.00000   0.00000   0.00000   0.00000   0.00000
           A5           0.00000   0.00000   0.00000   0.00000   0.00000
           A6           0.00000   0.00000   0.00000   0.00000   0.00000
           D1           0.00000   0.00000   0.00000   0.00000   0.00000
           D2           0.00000   0.00000   0.00000   0.00000   0.00000
           D3           0.00000   0.00000   0.00000   0.00000   0.00000
           D4           0.00000   0.00000   0.00000   0.00000   0.00000
                          A2        A3        A4        A5        A6
           A2           0.16000
           A3           0.00000   0.16000
           A4           0.00000   0.00000   0.16000
           A5           0.00000   0.00000   0.00000   0.16000
           A6           0.00000   0.00000   0.00000   0.00000   0.16000
           D1           0.00000   0.00000   0.00000   0.00000   0.00000
           D2           0.00000   0.00000   0.00000   0.00000   0.00000
           D3           0.00000   0.00000   0.00000   0.00000   0.00000
           D4           0.00000   0.00000   0.00000   0.00000   0.00000
                          D1        D2        D3        D4
           D1           0.00499
           D2           0.00000   0.00499
           D3           0.00000   0.00000   0.00499
           D4           0.00000   0.00000   0.00000   0.00499
     Eigenvalues ---    0.05269   0.05891   0.08766   0.16000   0.16000
     Eigenvalues ---    0.37230   0.37230   0.37230   0.386271000.00000
     Eigenvalues --- 1000.000001000.000001000.000001000.00000
 En-DIIS/RFO-DIIS IScMMF=        0 using points:     3    2
 RFO step:  Lambda= 0.00000000D+00.
 Iteration  1 RMS(Cart)=  0.00000013 RMS(Int)=  0.00000000
 ClnCor:  largest displacement from symmetrization is 1.66D-14 for atom     2.
 Variable       Old X    -DE/DX   Delta X   Delta X   Delta X     New X
                                  (DIIS)     (GDIIS)  (Total)
    R1        2.04639   0.00000   0.00000   0.00000   0.00000   2.04639
    R2        2.04639   0.00000   0.00000   0.00000   0.00000   2.04639
    R3        2.04639   0.00000   0.00000   0.00000   0.00000   2.04639
    R4        2.04639   0.00000   0.00000   0.00000   0.00000   2.04639
    A1        1.91063   0.00000   0.00000   0.00000   0.00000   1.91063
    A2        1.91063   0.00000   0.00000   0.00000   0.00000   1.91063
    A3        1.91063   0.00000   0.00000   0.00000   0.00000   1.91063
    A4        1.91063   0.00000   0.00000   0.00000   0.00000   1.91063
    A5        1.91063   0.00000   0.00000   0.00000   0.00000   1.91063
    A6        1.91063   0.00000   0.00000   0.00000   0.00000   1.91063
    D1       -2.09440   0.00000   0.00000   0.00000   0.00000  -2.09440
    D2        2.09440   0.00000   0.00000   0.00000   0.00000   2.09440
    D3       -2.09440   0.00000   0.00000   0.00000   0.00000  -2.09440
    D4        2.09440   0.00000   0.00000   0.00000   0.00000   2.09440
         Item               Value     Threshold  Converged?
 Maximum Force            0.000000     0.000450     YES
 RMS     Force            0.000000     0.000300     YES
 Maximum Displacement     0.000000     0.001800     YES
 RMS     Displacement     0.000000     0.001200     YES
 Predicted change in Energy=-4.878742D-14
 Optimization completed.
    -- Stationary point found.
                           ----------------------------
                           !   Optimized Parameters   !
                           ! (Angstroms and Degrees)  !
 --------------------------                            --------------------------
 ! Name  Definition              Value          Derivative Info.                !
 --------------------------------------------------------------------------------
 ! R1    R(1,2)                  1.0829         -DE/DX =    0.0                 !
 ! R2    R(1,3)                  1.0829         -DE/DX =    0.0                 !
 ! R3    R(1,4)                  1.0829         -DE/DX =    0.0                 !
 ! R4    R(1,5)                  1.0829         -DE/DX =    0.0                 !
 ! A1    A(2,1,3)              109.4712         -DE/DX =    0.0                 !
 ! A2    A(2,1,4)              109.4712         -DE/DX =    0.0                 !
 ! A3    A(2,1,5)              109.4712         -DE/DX =    0.0                 !
 ! A4    A(3,1,4)              109.4712         -DE/DX =    0.0                 !
 ! A5    A(3,1,5)              109.4712         -DE/DX =    0.0                 !
 ! A6    A(4,1,5)              109.4712         -DE/DX =    0.0                 !
 ! D1    D(2,1,4,3)           -120.0            -DE/DX =    0.0                 !
 ! D2    D(2,1,5,3)            120.0            -DE/DX =    0.0                 !
 ! D3    D(2,1,5,4)           -120.0            -DE/DX =    0.0                 !
 ! D4    D(3,1,5,4)            120.0            -DE/DX =    0.0                 !
 --------------------------------------------------------------------------------
 GradGradGradGradGradGradGradGradGradGradGradGradGradGradGradGradGradGrad

                          Input orientation:                          
 ---------------------------------------------------------------------
 Center     Atomic      Atomic             Coordinates (Angstroms)
 Number     Number       Type             X           Y           Z
 ---------------------------------------------------------------------
      1          6           0        3.020233   -0.384573   -0.873652
      2          1           0        3.381188   -1.405546   -0.873652
      3          1           0        3.381207    0.125907    0.010534
      4          1           0        3.381206    0.125908   -1.757837
      5          1           0        1.937332   -0.384559   -0.873651
 ---------------------------------------------------------------------
                    Distance matrix (angstroms):
                    1          2          3          4          5
     1  C    0.000000
     2  H    1.082901   0.000000
     3  H    1.082901   1.768371   0.000000
     4  H    1.082901   1.768371   1.768371   0.000000
     5  H    1.082901   1.768371   1.768371   1.768371   0.000000
 Stoichiometry    CH4
 Framework group  TD[O(C),4C3(H)]
 Deg. of freedom     1
 Full point group                 TD      NOp  24
 Largest Abelian subgroup         D2      NOp   4
 Largest concise Abelian subgroup D2      NOp   4
                         Standard orientation:                         
 ---------------------------------------------------------------------
 Center     Atomic      Atomic             Coordinates (Angstroms)
 Number     Number       Type             X           Y           Z
 ---------------------------------------------------------------------
      1          6           0        0.000000    0.000000    0.000000
      2          1           0        0.625213    0.625213    0.625213
      3          1           0       -0.625213   -0.625213    0.625213
      4          1           0       -0.625213    0.625213   -0.625213
      5          1           0        0.625213   -0.625213   -0.625213
 ---------------------------------------------------------------------
 Rotational constants (GHZ):    160.3560971    160.3560971    160.3560971

 **********************************************************************

            Population analysis using the SCF density.

 **********************************************************************

 Orbital symmetries:
       Occupied  (A1) (A1) (T2) (T2) (T2)
       Virtual   (A1) (T2) (T2) (T2) (T2) (T2) (T2) (A1) (T2) (T2)
                 (T2) (A1)
 The electronic state is 1-A1.
 Alpha  occ. eigenvalues --  -11.14446  -0.94588  -0.54484  -0.54484  -0.54484
 Alpha virt. eigenvalues --    0.29668   0.35257   0.35257   0.35257   0.92309
 Alpha virt. eigenvalues --    0.92309   0.92309   1.33329   1.35898   1.35898
 Alpha virt. eigenvalues --    1.35898   1.95586
     Molecular Orbital Coefficients:
                           1         2         3         4         5
                        (A1)--O   (A1)--O   (T2)--O   (T2)--O   (T2)--O
     Eigenvalues --   -11.14446  -0.94588  -0.54484  -0.54484  -0.54484
   1 1   C  1S          0.98709  -0.20891   0.00000   0.00000   0.00000
   2        2S          0.09936   0.20244   0.00000   0.00000   0.00000
   3        2PX         0.00000   0.00000   0.00000   0.00000   0.37447
   4        2PY         0.00000   0.00000   0.00000   0.37447   0.00000
   5        2PZ         0.00000   0.00000   0.37447   0.00000   0.00000
   6        3S         -0.07230   0.61341   0.00000   0.00000   0.00000
   7        3PX         0.00000   0.00000   0.00000   0.00000   0.31001
   8        3PY         0.00000   0.00000   0.00000   0.31001   0.00000
   9        3PZ         0.00000   0.00000   0.31001   0.00000   0.00000
  10 2   H  1S         -0.00056   0.12297   0.15923   0.15923   0.15923
  11        2S          0.01411   0.02181   0.14904   0.14904   0.14904
  12 3   H  1S         -0.00056   0.12297   0.15923  -0.15923  -0.15923
  13        2S          0.01411   0.02181   0.14904  -0.14904  -0.14904
  14 4   H  1S         -0.00056   0.12297  -0.15923   0.15923  -0.15923
  15        2S          0.01411   0.02181  -0.14904   0.14904  -0.14904
  16 5   H  1S         -0.00056   0.12297  -0.15923  -0.15923   0.15923
  17        2S          0.01411   0.02181  -0.14904  -0.14904   0.14904
                           6         7         8         9        10
                        (A1)--V   (T2)--V   (T2)--V   (T2)--V   (T2)--V
     Eigenvalues --     0.29668   0.35257   0.35257   0.35257   0.92309
   1 1   C  1S         -0.17906   0.00000   0.00000   0.00000   0.00000
   2        2S          0.04170   0.00000   0.00000   0.00000   0.00000
   3        2PX         0.00000   0.26851   0.00000   0.00000  -0.74904
   4        2PY         0.00000   0.00000   0.00000   0.26851   0.00000
   5        2PZ         0.00000   0.00000   0.26851   0.00000   0.00000
   6        3S          2.53152   0.00000   0.00000   0.00000   0.00000
   7        3PX         0.00000   1.43252   0.00000   0.00000   1.25385
   8        3PY         0.00000   0.00000   0.00000   1.43252   0.00000
   9        3PZ         0.00000   0.00000   1.43252   0.00000   0.00000
  10 2   H  1S          0.00520  -0.04786  -0.04786  -0.04786  -0.37666
  11        2S         -0.95557  -1.04682  -1.04682  -1.04682   0.00890
  12 3   H  1S          0.00520   0.04786  -0.04786   0.04786   0.37666
  13        2S         -0.95557   1.04682  -1.04682   1.04682  -0.00890
  14 4   H  1S          0.00520   0.04786   0.04786  -0.04786   0.37666
  15        2S         -0.95557   1.04682   1.04682  -1.04682  -0.00890
  16 5   H  1S          0.00520  -0.04786   0.04786   0.04786  -0.37666
  17        2S         -0.95557  -1.04682   1.04682   1.04682   0.00890
                          11        12        13        14        15
                        (T2)--V   (T2)--V   (A1)--V   (T2)--V   (T2)--V
     Eigenvalues --     0.92309   0.92309   1.33329   1.35898   1.35898
   1 1   C  1S          0.00000   0.00000   0.12992   0.00000   0.00000
   2        2S          0.00000   0.00000  -0.13790   0.00000   0.00000
   3        2PX         0.00000   0.00000   0.00000   0.00000  -0.86259
   4        2PY        -0.74904   0.00000   0.00000   0.00000   0.00000
   5        2PZ         0.00000  -0.74904   0.00000  -0.86259   0.00000
   6        3S          0.00000   0.00000  -0.31851   0.00000   0.00000
   7        3PX         0.00000   0.00000   0.00000   0.00000   0.98131
   8        3PY         1.25385   0.00000   0.00000   0.00000   0.00000
   9        3PZ         0.00000   1.25385   0.00000   0.98131   0.00000
  10 2   H  1S         -0.37666  -0.37666   0.67126   0.54008   0.54008
  11        2S          0.00890   0.00890  -0.24824  -0.81644  -0.81644
  12 3   H  1S          0.37666  -0.37666   0.67126   0.54008  -0.54008
  13        2S         -0.00890   0.00890  -0.24824  -0.81644   0.81644
  14 4   H  1S         -0.37666   0.37666   0.67126  -0.54008  -0.54008
  15        2S          0.00890  -0.00890  -0.24824   0.81644   0.81644
  16 5   H  1S          0.37666   0.37666   0.67126  -0.54008   0.54008
  17        2S         -0.00890  -0.00890  -0.24824   0.81644  -0.81644
                          16        17
                        (T2)--V   (A1)--V
     Eigenvalues --     1.35898   1.95586
   1 1   C  1S          0.00000  -0.01635
   2        2S          0.00000  -2.00322
   3        2PX         0.00000   0.00000
   4        2PY        -0.86259   0.00000
   5        2PZ         0.00000   0.00000
   6        3S          0.00000   3.92579
   7        3PX         0.00000   0.00000
   8        3PY         0.98131   0.00000
   9        3PZ         0.00000   0.00000
  10 2   H  1S          0.54008  -0.14099
  11        2S         -0.81644  -0.77651
  12 3   H  1S         -0.54008  -0.14099
  13        2S          0.81644  -0.77651
  14 4   H  1S          0.54008  -0.14099
  15        2S         -0.81644  -0.77651
  16 5   H  1S         -0.54008  -0.14099
  17        2S          0.81644  -0.77651
     Density Matrix:
                           1         2         3         4         5
   1 1   C  1S          2.03599
   2        2S          0.11157   0.10171
   3        2PX         0.00000   0.00000   0.28045
   4        2PY         0.00000   0.00000   0.00000   0.28045
   5        2PZ         0.00000   0.00000   0.00000   0.00000   0.28045
   6        3S         -0.39903   0.23399   0.00000   0.00000   0.00000
   7        3PX         0.00000   0.00000   0.23217   0.00000   0.00000
   8        3PY         0.00000   0.00000   0.00000   0.23217   0.00000
   9        3PZ         0.00000   0.00000   0.00000   0.00000   0.23217
  10 2   H  1S         -0.05248   0.04968   0.11925   0.11925   0.11925
  11        2S          0.01874   0.01163   0.11162   0.11162   0.11162
  12 3   H  1S         -0.05248   0.04968  -0.11925  -0.11925   0.11925
  13        2S          0.01874   0.01163  -0.11162  -0.11162   0.11162
  14 4   H  1S         -0.05248   0.04968  -0.11925   0.11925  -0.11925
  15        2S          0.01874   0.01163  -0.11162   0.11162  -0.11162
  16 5   H  1S         -0.05248   0.04968   0.11925  -0.11925  -0.11925
  17        2S          0.01874   0.01163   0.11162  -0.11162  -0.11162
                           6         7         8         9        10
   6        3S          0.76300
   7        3PX         0.00000   0.19221
   8        3PY         0.00000   0.00000   0.19221
   9        3PZ         0.00000   0.00000   0.00000   0.19221
  10 2   H  1S          0.15094   0.09873   0.09873   0.09873   0.18237
  11        2S          0.02472   0.09241   0.09241   0.09241   0.14774
  12 3   H  1S          0.15094  -0.09873  -0.09873   0.09873  -0.02047
  13        2S          0.02472  -0.09241  -0.09241   0.09241  -0.04212
  14 4   H  1S          0.15094  -0.09873   0.09873  -0.09873  -0.02047
  15        2S          0.02472  -0.09241   0.09241  -0.09241  -0.04212
  16 5   H  1S          0.15094   0.09873  -0.09873  -0.09873  -0.02047
  17        2S          0.02472   0.09241  -0.09241  -0.09241  -0.04212
                          11        12        13        14        15
  11        2S          0.13462
  12 3   H  1S         -0.04212   0.18237
  13        2S         -0.04308   0.14774   0.13462
  14 4   H  1S         -0.04212  -0.02047  -0.04212   0.18237
  15        2S         -0.04308  -0.04212  -0.04308   0.14774   0.13462
  16 5   H  1S         -0.04212  -0.02047  -0.04212  -0.02047  -0.04212
  17        2S         -0.04308  -0.04212  -0.04308  -0.04212  -0.04308
                          16        17
  16 5   H  1S          0.18237
  17        2S          0.14774   0.13462
    Full Mulliken population analysis:
                           1         2         3         4         5
   1 1   C  1S          2.03599
   2        2S          0.02136   0.10171
   3        2PX         0.00000   0.00000   0.28045
   4        2PY         0.00000   0.00000   0.00000   0.28045
   5        2PZ         0.00000   0.00000   0.00000   0.00000   0.28045
   6        3S         -0.07195   0.17815   0.00000   0.00000   0.00000
   7        3PX         0.00000   0.00000   0.12281   0.00000   0.00000
   8        3PY         0.00000   0.00000   0.00000   0.12281   0.00000
   9        3PZ         0.00000   0.00000   0.00000   0.00000   0.12281
  10 2   H  1S         -0.00103   0.00987   0.02055   0.02055   0.02055
  11        2S          0.00153   0.00471   0.01516   0.01516   0.01516
  12 3   H  1S         -0.00103   0.00987   0.02055   0.02055   0.02055
  13        2S          0.00153   0.00471   0.01516   0.01516   0.01516
  14 4   H  1S         -0.00103   0.00987   0.02055   0.02055   0.02055
  15        2S          0.00153   0.00471   0.01516   0.01516   0.01516
  16 5   H  1S         -0.00103   0.00987   0.02055   0.02055   0.02055
  17        2S          0.00153   0.00471   0.01516   0.01516   0.01516
                           6         7         8         9        10
   6        3S          0.76300
   7        3PX         0.00000   0.19221
   8        3PY         0.00000   0.00000   0.19221
   9        3PZ         0.00000   0.00000   0.00000   0.19221
  10 2   H  1S          0.05157   0.02876   0.02876   0.02876   0.18237
  11        2S          0.01661   0.03139   0.03139   0.03139   0.09542
  12 3   H  1S          0.05157   0.02876   0.02876   0.02876  -0.00017
  13        2S          0.01661   0.03139   0.03139   0.03139  -0.00503
  14 4   H  1S          0.05157   0.02876   0.02876   0.02876  -0.00017
  15        2S          0.01661   0.03139   0.03139   0.03139  -0.00503
  16 5   H  1S          0.05157   0.02876   0.02876   0.02876  -0.00017
  17        2S          0.01661   0.03139   0.03139   0.03139  -0.00503
                          11        12        13        14        15
  11        2S          0.13462
  12 3   H  1S         -0.00503   0.18237
  13        2S         -0.01549   0.09542   0.13462
  14 4   H  1S         -0.00503  -0.00017  -0.00503   0.18237
  15        2S         -0.01549  -0.00503  -0.01549   0.09542   0.13462
  16 5   H  1S         -0.00503  -0.00017  -0.00503  -0.00017  -0.00503
  17        2S         -0.01549  -0.00503  -0.01549  -0.00503  -0.01549
                          16        17
  16 5   H  1S          0.18237
  17        2S          0.09542   0.13462
     Gross orbital populations:
                           1
   1 1   C  1S          1.98738
   2        2S          0.35953
   3        2PX         0.54610
   4        2PY         0.54610
   5        2PZ         0.54610
   6        3S          1.14192
   7        3PX         0.55561
   8        3PY         0.55561
   9        3PZ         0.55561
  10 2   H  1S          0.47051
  11        2S          0.33099
  12 3   H  1S          0.47051
  13        2S          0.33099
  14 4   H  1S          0.47051
  15        2S          0.33099
  16 5   H  1S          0.47051
  17        2S          0.33099
          Condensed to atoms (all electrons):
              1          2          3          4          5
     1  C    5.310653   0.370831   0.370831   0.370831   0.370831
     2  H    0.370831   0.507841  -0.025722  -0.025722  -0.025722
     3  H    0.370831  -0.025722   0.507841  -0.025722  -0.025722
     4  H    0.370831  -0.025722  -0.025722   0.507841  -0.025722
     5  H    0.370831  -0.025722  -0.025722  -0.025722   0.507841
 Mulliken atomic charges:
              1
     1  C   -0.793976
     2  H    0.198494
     3  H    0.198494
     4  H    0.198494
     5  H    0.198494
 Sum of Mulliken atomic charges =   0.00000
 Mulliken charges with hydrogens summed into heavy atoms:
              1
     1  C    0.000000
 Sum of Mulliken charges with hydrogens summed into heavy atoms =   0.00000
 Electronic spatial extent (au):  <R**2>=             35.4787
 Charge=              0.0000 electrons
 Dipole moment (field-independent basis, Debye):
    X=              0.0000    Y=              0.0000    Z=              0.0000  Tot=              0.0000
 Quadrupole moment (field-independent basis, Debye-Ang):
   XX=             -8.3966   YY=             -8.3966   ZZ=             -8.3966
   XY=              0.0000   XZ=              0.0000   YZ=              0.0000
 Traceless Quadrupole moment (field-independent basis, Debye-Ang):
   XX=              0.0000   YY=              0.0000   ZZ=              0.0000
   XY=              0.0000   XZ=              0.0000   YZ=              0.0000
 Octapole moment (field-independent basis, Debye-Ang**2):
  XXX=              0.0000  YYY=              0.0000  ZZZ=              0.0000  XYY=              0.0000
  XXY=              0.0000  XXZ=              0.0000  XZZ=              0.0000  YZZ=              0.0000
  YYZ=              0.0000  XYZ=              0.7204
 Hexadecapole moment (field-independent basis, Debye-Ang**3):
 XXXX=            -15.3377 YYYY=            -15.3377 ZZZZ=            -15.3377 XXXY=              0.0000
 XXXZ=              0.0000 YYYX=              0.0000 YYYZ=              0.0000 ZZZX=              0.0000
 ZZZY=              0.0000 XXYY=             -4.6685 XXZZ=             -4.6685 YYZZ=             -4.6685
 XXYZ=              0.0000 YYXZ=              0.0000 ZZXY=              0.0000
 N-N= 1.352346022329D+01 E-N=-1.194388681293D+02  KE= 3.988790259572D+01
 Symmetry A    KE= 3.423400799509D+01
 Symmetry B1   KE= 1.884631533542D+00
 Symmetry B2   KE= 1.884631533542D+00
 Symmetry B3   KE= 1.884631533542D+00
 Orbital energies and kinetic energies (alpha):
                                 1                 2
   1         (A1)--O         -11.144459         15.870564
   2         (A1)--O          -0.945882          1.246440
   3         (T2)--O          -0.544838          0.942316
   4         (T2)--O          -0.544838          0.942316
   5         (T2)--O          -0.544838          0.942316
   6         (A1)--V           0.296677          1.044023
   7         (T2)--V           0.352574          0.816348
   8         (T2)--V           0.352574          0.816348
   9         (T2)--V           0.352574          0.816348
  10         (T2)--V           0.923094          1.904460
  11         (T2)--V           0.923094          1.904460
  12         (T2)--V           0.923094          1.904460
  13         (A1)--V           1.333289          2.747703
  14         (T2)--V           1.358976          3.033428
  15         (T2)--V           1.358976          3.033428
  16         (T2)--V           1.358976          3.033428
  17         (A1)--V           1.955856          3.124227
 Total kinetic energy from orbitals= 3.988790259572D+01
 1|1|UNPC-123-PC|FOpt|RHF|3-21G|C1H4|123|23-Oct-2016|0||# hf/3-21g opt 
 freq pop=full||Title Card Required||0,1|C,3.020233371,-0.384572525,-0.
 873651501|H,3.3811881494,-1.4055461409,-0.8736524272|H,3.3812074448,0.
 1259071928,0.0105338032|H,3.3812059345,0.1259082631,-1.7578368038|H,1.
 9373319552,-0.384559415,-0.8736505761||Version=IA32W-G09RevA.02|State=
 1-A1|HF=-39.9768776|RMSD=3.210e-009|RMSF=5.013e-008|Dipole=0.,0.,0.|Qu
 adrupole=0.,0.,0.,0.,0.,0.|PG=TD [O(C1),4C3(H1)]||@


 ALL MY ATTEMPTS TO ADAPT THE THEORETICAL FOUNDATIONS OF PHYSICS
 TO THESE NEW NOTIONS FAILED COMPLETELY. IT WAS AS IF THE GROUND HAD
 BEEN PULLED OUT FROM UNDER ONE WITH NO FIRM FOUNDATION TO BE SEEN ANYWHERE,
 UPON WHICH ONE COULD HAVE BUILT.  -- A.EINSTEIN
 Job cpu time:  0 days  0 hours  0 minutes  5.0 seconds.
 File lengths (MBytes):  RWF=      5 Int=      0 D2E=      0 Chk=      1 Scr=      1
 Normal termination of Gaussian 09 at Sun Oct 23 10:21:56 2016.
 Link1:  Proceeding to internal job step number  2.
 --------------------------------------------------------------
 #N Geom=AllCheck Guess=TCheck SCRF=Check GenChk RHF/3-21G Freq
 --------------------------------------------------------------
 1/10=4,29=7,30=1,38=1,40=1/1,3;
 2/12=2,40=1/2;
 3/5=5,11=1,14=-4,16=1,25=1,30=1,70=2,71=2,116=1/1,2,3;
 4/5=101/1;
 5/5=2,98=1/2;
 8/6=4,10=90,11=11/1;
 10/13=10,15=4/2;
 11/6=3,8=1,9=11,15=111,16=1/1,2,10;
 10/6=1/2;
 6/7=3,18=1,28=1/1;
 7/8=1,10=1,25=1/1,2,3,16;
 1/10=4,30=1/3;
 99//99;
 -------------------
 Title Card Required
 -------------------
 Redundant internal coordinates taken from checkpoint file:
 D:\Gaussian Result\CrFeCO-\CrFeCO- OK_meng\CH4_full.chk
 Charge =  0 Multiplicity = 1
 C,0,3.020233371,-0.384572525,-0.873651501
 H,0,3.3811881494,-1.4055461409,-0.8736524272
 H,0,3.3812074448,0.1259071928,0.0105338032
 H,0,3.3812059345,0.1259082631,-1.7578368038
 H,0,1.9373319552,-0.384559415,-0.8736505761
 Recover connectivity data from disk.

 GradGradGradGradGradGradGradGradGradGradGradGradGradGradGradGradGradGrad
 Berny optimization.
 Initialization pass.
                           ----------------------------
                           !    Initial Parameters    !
                           ! (Angstroms and Degrees)  !
 --------------------------                            --------------------------
 ! Name  Definition              Value          Derivative Info.                !
 --------------------------------------------------------------------------------
 ! R1    R(1,2)                  1.0829         calculate D2E/DX2 analytically  !
 ! R2    R(1,3)                  1.0829         calculate D2E/DX2 analytically  !
 ! R3    R(1,4)                  1.0829         calculate D2E/DX2 analytically  !
 ! R4    R(1,5)                  1.0829         calculate D2E/DX2 analytically  !
 ! A1    A(2,1,3)              109.4712         calculate D2E/DX2 analytically  !
 ! A2    A(2,1,4)              109.4712         calculate D2E/DX2 analytically  !
 ! A3    A(2,1,5)              109.4712         calculate D2E/DX2 analytically  !
 ! A4    A(3,1,4)              109.4712         calculate D2E/DX2 analytically  !
 ! A5    A(3,1,5)              109.4712         calculate D2E/DX2 analytically  !
 ! A6    A(4,1,5)              109.4712         calculate D2E/DX2 analytically  !
 ! D1    D(2,1,4,3)           -120.0            calculate D2E/DX2 analytically  !
 ! D2    D(2,1,5,3)            120.0            calculate D2E/DX2 analytically  !
 ! D3    D(2,1,5,4)           -120.0            calculate D2E/DX2 analytically  !
 ! D4    D(3,1,5,4)            120.0            calculate D2E/DX2 analytically  !
 --------------------------------------------------------------------------------
 Trust Radius=3.00D-01 FncErr=1.00D-07 GrdErr=1.00D-07
 Number of steps in this run=   2 maximum allowed number of steps=   2.
 GradGradGradGradGradGradGradGradGradGradGradGradGradGradGradGradGradGrad

                          Input orientation:                          
 ---------------------------------------------------------------------
 Center     Atomic      Atomic             Coordinates (Angstroms)
 Number     Number       Type             X           Y           Z
 ---------------------------------------------------------------------
      1          6           0        3.020233   -0.384573   -0.873652
      2          1           0        3.381188   -1.405546   -0.873652
      3          1           0        3.381207    0.125907    0.010534
      4          1           0        3.381206    0.125908   -1.757837
      5          1           0        1.937332   -0.384559   -0.873651
 ---------------------------------------------------------------------
                    Distance matrix (angstroms):
                    1          2          3          4          5
     1  C    0.000000
     2  H    1.082901   0.000000
     3  H    1.082901   1.768371   0.000000
     4  H    1.082901   1.768371   1.768371   0.000000
     5  H    1.082901   1.768371   1.768371   1.768371   0.000000
 Stoichiometry    CH4
 Framework group  TD[O(C),4C3(H)]
 Deg. of freedom     1
 Full point group                 TD      NOp  24
 Largest Abelian subgroup         D2      NOp   4
 Largest concise Abelian subgroup D2      NOp   4
                         Standard orientation:                         
 ---------------------------------------------------------------------
 Center     Atomic      Atomic             Coordinates (Angstroms)
 Number     Number       Type             X           Y           Z
 ---------------------------------------------------------------------
      1          6           0        0.000000    0.000000    0.000000
      2          1           0        0.625213    0.625213    0.625213
      3          1           0       -0.625213   -0.625213    0.625213
      4          1           0       -0.625213    0.625213   -0.625213
      5          1           0        0.625213   -0.625213   -0.625213
 ---------------------------------------------------------------------
 Rotational constants (GHZ):    160.3560971    160.3560971    160.3560971
 Standard basis: 3-21G (6D, 7F)
 There are     5 symmetry adapted basis functions of A   symmetry.
 There are     4 symmetry adapted basis functions of B1  symmetry.
 There are     4 symmetry adapted basis functions of B2  symmetry.
 There are     4 symmetry adapted basis functions of B3  symmetry.
 Integral buffers will be    262144 words long.
 Raffenetti 1 integral format.
 Two-electron integral symmetry is turned on.
    17 basis functions,    27 primitive gaussians,    17 cartesian basis functions
     5 alpha electrons        5 beta electrons
       nuclear repulsion energy        13.5234602233 Hartrees.
 NAtoms=    5 NActive=    5 NUniq=    2 SFac= 3.00D+00 NAtFMM=   80 NAOKFM=F Big=F
 One-electron integrals computed using PRISM.
 NBasis=    17 RedAO= T  NBF=     5     4     4     4
 NBsUse=    17 1.00D-06 NBFU=     5     4     4     4
 Initial guess read from the checkpoint file:  D:\Gaussian Result\CrFeCO-\CrFeCO-
  OK_meng\CH4_full.chk
 B after Tr=     0.000000    0.000000    0.000000
         Rot=    1.000000    0.000000    0.000000    0.000000 Ang=   0.00 deg.
 Initial guess orbital symmetries:
       Occupied  (A1) (A1) (T2) (T2) (T2)
       Virtual   (A1) (T2) (T2) (T2) (T2) (T2) (T2) (A1) (T2) (T2)
                 (T2) (A1)
 Requested convergence on RMS density matrix=1.00D-08 within 128 cycles.
 Requested convergence on MAX density matrix=1.00D-06.
 Requested convergence on             energy=1.00D-06.
 No special actions if energy rises.
 Keep R1 ints in memory in canonical form, NReq=831666.
 SCF Done:  E(RHF) =  -39.9768775602     A.U. after    1 cycles
             Convg  =    0.3934D-09             -V/T =  2.0022
 Range of M.O.s used for correlation:     1    17
 NBasis=    17 NAE=     5 NBE=     5 NFC=     0 NFV=     0
 NROrb=     17 NOA=     5 NOB=     5 NVA=    12 NVB=    12
          Differentiating once with respect to electric field.
                with respect to dipole field.
          Electric field/nuclear overlap derivatives assumed to be zero.
          Keep R1 ints in memory in canonical form, NReq=812237.
          There are     3 degrees of freedom in the 1st order CPHF.  IDoFFX=0.
      3 vectors produced by pass  0 Test12= 2.00D-15 3.33D-08 XBig12= 2.37D+00 9.12D-01.
 AX will form     3 AO Fock derivatives at one time.
      3 vectors produced by pass  1 Test12= 2.00D-15 3.33D-08 XBig12= 2.49D-02 8.40D-02.
      3 vectors produced by pass  2 Test12= 2.00D-15 3.33D-08 XBig12= 9.84D-05 5.63D-03.
      3 vectors produced by pass  3 Test12= 2.00D-15 3.33D-08 XBig12= 1.88D-07 2.45D-04.
      3 vectors produced by pass  4 Test12= 2.00D-15 3.33D-08 XBig12= 1.85D-09 2.20D-05.
      3 vectors produced by pass  5 Test12= 2.00D-15 3.33D-08 XBig12= 1.24D-11 2.23D-06.
      3 vectors produced by pass  6 Test12= 2.00D-15 3.33D-08 XBig12= 2.15D-14 8.64D-08.
 Inverted reduced A of dimension    21 with in-core refinement.
 End of Minotr Frequency-dependent properties file   721 does not exist.
 End of Minotr Frequency-dependent properties file   722 does not exist.
 Symmetrizing basis deriv contribution to polar:
 IMax=3 JMax=2 DiffMx= 0.00D+00
 G2DrvN: will do     6 centers at a time, making    1 passes doing MaxLOS=1.
 Calling FoFCou, ICntrl=  3107 FMM=F I1Cent=   0 AccDes= 0.00D+00.
 FoFDir/FoFCou used for L=0 through L=1.
 End of G2Drv Frequency-dependent properties file   721 does not exist.
 End of G2Drv Frequency-dependent properties file   722 does not exist.
          IDoAtm=11111
          Differentiating once with respect to electric field.
                with respect to dipole field.
          Differentiating once with respect to nuclear coordinates.
          Keep R1 ints in memory in canonical form, NReq=812297.
          There are     9 degrees of freedom in the 1st order CPHF.  IDoFFX=4.
 Will reuse    3 saved solutions.
      6 vectors produced by pass  0 Test12= 6.67D-16 1.11D-08 XBig12= 3.15D-02 8.76D-02.
 AX will form     6 AO Fock derivatives at one time.
      6 vectors produced by pass  1 Test12= 6.67D-16 1.11D-08 XBig12= 5.77D-04 1.14D-02.
      6 vectors produced by pass  2 Test12= 6.67D-16 1.11D-08 XBig12= 1.92D-06 8.72D-04.
      6 vectors produced by pass  3 Test12= 6.67D-16 1.11D-08 XBig12= 6.95D-09 4.81D-05.
[...]
   XX=              0.0000   YY=              0.0000   ZZ=              0.0000
   XY=              0.0000   XZ=              0.0000   YZ=              0.0000
 Octapole moment (field-independent basis, Debye-Ang**2):
  XXX=              0.0000  YYY=              0.0000  ZZZ=              0.0000  XYY=              0.0000
  XXY=              0.0000  XXZ=              0.0000  XZZ=              0.0000  YZZ=              0.0000
  YYZ=              0.0000  XYZ=              0.7204
 Hexadecapole moment (field-independent basis, Debye-Ang**3):
 XXXX=            -15.3377 YYYY=            -15.3377 ZZZZ=            -15.3377 XXXY=              0.0000
 XXXZ=              0.0000 YYYX=              0.0000 YYYZ=              0.0000 ZZZX=              0.0000
 ZZZY=              0.0000 XXYY=             -4.6685 XXZZ=             -4.6685 YYZZ=             -4.6685
 XXYZ=              0.0000 YYXZ=              0.0000 ZZXY=              0.0000
 N-N= 1.352346022329D+01 E-N=-1.194388681483D+02  KE= 3.988790260725D+01
 Symmetry A    KE= 3.423400800752D+01
 Symmetry B1   KE= 1.884631533246D+00
 Symmetry B2   KE= 1.884631533246D+00
 Symmetry B3   KE= 1.884631533246D+00
 Orbital energies and kinetic energies (alpha):
                                 1                 2
   1         (A1)--O         -11.144459         15.870564
   2         (A1)--O          -0.945882          1.246440
   3         (T2)--O          -0.544838          0.942316
   4         (T2)--O          -0.544838          0.942316
   5         (T2)--O          -0.544838          0.942316
   6         (A1)--V           0.296677          1.044023
   7         (T2)--V           0.352574          0.816348
   8         (T2)--V           0.352574          0.816348
   9         (T2)--V           0.352574          0.816348
  10         (T2)--V           0.923094          1.904460
  11         (T2)--V           0.923094          1.904460
  12         (T2)--V           0.923094          1.904460
  13         (A1)--V           1.333289          2.747703
  14         (T2)--V           1.358976          3.033428
  15         (T2)--V           1.358976          3.033428
  16         (T2)--V           1.358976          3.033428
  17         (A1)--V           1.955856          3.124227
 Total kinetic energy from orbitals= 3.988790260725D+01
  Exact polarizability:  11.452   0.000  11.452   0.000   0.000  11.452
 Approx polarizability:   8.794   0.000   8.794   0.000   0.000   8.794
 Calling FoFJK, ICntrl=    100127 FMM=F ISym2X=1 I1Cent= 0 IOpClX= 0 NMat=1 NMatS=1 NMatT=0.
 Full mass-weighted force constant matrix:
 Low frequencies ---   -1.1284   -1.1284   -1.1284    0.0002    0.0010    0.0010
 Low frequencies --- 1520.3260 1520.3260 1520.3260
 Diagonal vibrational polarizability:
        0.3228304       0.3228304       0.3228304
 Diagonal vibrational hyperpolarizability:
        0.0000000       0.0000000       0.0000000
 Harmonic frequencies (cm**-1), IR intensities (KM/Mole), Raman scattering
 activities (A**4/AMU), depolarization ratios for plane and unpolarized
 incident light, reduced masses (AMU), force constants (mDyne/A),
 and normal coordinates:
                     1                      2                      3
                    T2                     T2                     T2
 Frequencies --  1520.3260              1520.3260              1520.3260
 Red. masses --     1.1821                 1.1821                 1.1821
 Frc consts  --     1.6099                 1.6099                 1.6099
 IR Inten    --    21.2675                21.2675                21.2675
 Raman Activ --     3.1031                 3.1031                 3.1031
 Depolar (P) --     0.7500                 0.7500                 0.7500
 Depolar (U) --     0.8571                 0.8571                 0.8571
  Atom  AN      X      Y      Z        X      Y      Z        X      Y      Z
     1   6     0.07   0.07   0.07     0.09   0.00  -0.09    -0.05   0.10  -0.05
     2   1     0.05   0.05   0.05    -0.44   0.02   0.42     0.23  -0.49   0.26
     3   1    -0.22  -0.22  -0.48    -0.12   0.34   0.10     0.43  -0.29   0.06
     4   1    -0.22  -0.48  -0.22    -0.42   0.00   0.43    -0.14  -0.12  -0.11
     5   1    -0.48  -0.22  -0.22    -0.10  -0.31   0.09     0.06  -0.32   0.44
                     4                      5                      6
                     E                      E                     A1
 Frequencies --  1739.7799              1739.7799              3186.7639
 Red. masses --     1.0078                 1.0078                 1.0078
 Frc consts  --     1.7973                 1.7973                 6.0302
 IR Inten    --     0.0000                 0.0000                 0.0000
 Raman Activ --    38.8428                38.8428               120.1225
 Depolar (P) --     0.7500                 0.7500                 0.0000
 Depolar (U) --     0.8571                 0.8571                 0.0000
  Atom  AN      X      Y      Z        X      Y      Z        X      Y      Z
     1   6     0.00   0.00   0.00     0.00   0.00   0.00     0.00   0.00   0.00
     2   1    -0.26   0.40  -0.14    -0.31  -0.07   0.38    -0.29  -0.29  -0.29
     3   1     0.26  -0.40  -0.14     0.31   0.07   0.38     0.29   0.29  -0.29
     4   1     0.26   0.40   0.14     0.31  -0.07  -0.38     0.29  -0.29   0.29
     5   1    -0.26  -0.40   0.14    -0.31   0.07  -0.38    -0.29   0.29   0.29
                     7                      8                      9
                    T2                     T2                     T2
 Frequencies --  3280.1249              3280.1249              3280.1249
 Red. masses --     1.0989                 1.0989                 1.0989
 Frc consts  --     6.9661                 6.9661                 6.9661
 IR Inten    --    30.0716                30.0716                30.0716
 Raman Activ --    58.1250                58.1250                58.1250
 Depolar (P) --     0.7500                 0.7500                 0.7500
 Depolar (U) --     0.8571                 0.8571                 0.8571
  Atom  AN      X      Y      Z        X      Y      Z        X      Y      Z
     1   6    -0.05  -0.05  -0.05     0.05  -0.07   0.03    -0.06  -0.01   0.07
     2   1     0.50   0.50   0.50     0.01  -0.02   0.01    -0.01   0.00   0.02
     3   1     0.15   0.15  -0.18     0.19   0.16  -0.17     0.43   0.44  -0.43
     4   1     0.16  -0.19   0.16    -0.46   0.46  -0.47    -0.08   0.06  -0.05
     5   1    -0.18   0.16   0.16    -0.29   0.28   0.31     0.36  -0.38  -0.36

 -------------------
 - Thermochemistry -
 -------------------
 Temperature   298.150 Kelvin.  Pressure   1.00000 Atm.
 Atom     1 has atomic number  6 and mass  12.00000
 Atom     2 has atomic number  1 and mass   1.00783
 Atom     3 has atomic number  1 and mass   1.00783
 Atom     4 has atomic number  1 and mass   1.00783
 Atom     5 has atomic number  1 and mass   1.00783
 Molecular mass:    16.03130 amu.
 Principal axes and moments of inertia in atomic units:
                           1         2         3
     Eigenvalues --    11.25458  11.25458  11.25458
           X           -0.00998   0.77728  -0.62908
           Y            0.99203   0.08672   0.09141
           Z           -0.12561   0.62315   0.77195
 This molecule is a spherical top.
 Rotational symmetry number 12.
 Rotational temperatures (Kelvin)      7.69587     7.69587     7.69587
 Rotational constants (GHZ):         160.35610   160.35610   160.35610
 Zero-point vibrational energy     126012.7 (Joules/Mol)
                                   30.11776 (Kcal/Mol)
 Vibrational temperatures:   2187.41  2187.41  2187.41  2503.15  2503.15
          (Kelvin)           4585.04  4719.36  4719.36  4719.36
 
 Zero-point correction=                           0.047996 (Hartree/Particle)
 Thermal correction to Energy=                    0.050845
 Thermal correction to Enthalpy=                  0.051790
 Thermal correction to Gibbs Free Energy=         0.030702
 Sum of electronic and zero-point Energies=            -39.928882
 Sum of electronic and thermal Energies=               -39.926032
 Sum of electronic and thermal Enthalpies=             -39.925088
 Sum of electronic and thermal Free Energies=          -39.946176
 
                     E (Thermal)             CV                S
                      KCal/Mol        Cal/Mol-Kelvin    Cal/Mol-Kelvin
 Total                   31.906              6.234             44.383
 Electronic               0.000              0.000              0.000
 Translational            0.889              2.981             34.261
 Rotational               0.889              2.981             10.081
 Vibrational             30.129              0.273              0.041
                       Q            Log10(Q)             Ln(Q)
 Total Bot       0.755390D-14        -14.121829        -32.516712
 Total V=0       0.900768D+08          7.954613         18.316173
 Vib (Bot)       0.840628D-22        -22.075396        -50.830478
 Vib (V=0)       0.100241D+01          0.001045          0.002407
 Electronic      0.100000D+01          0.000000          0.000000
 Translational   0.252295D+07          6.401908         14.740939
 Rotational      0.356172D+02          1.551659          3.572828
 ***** Axes restored to original set *****
 -------------------------------------------------------------------
 Center     Atomic                   Forces (Hartrees/Bohr)
 Number     Number              X              Y              Z
 -------------------------------------------------------------------
      1        6           0.000000000    0.000000000    0.000000000
      2        1           0.000000032   -0.000000092    0.000000000
      3        1           0.000000032    0.000000046    0.000000079
      4        1           0.000000032    0.000000046   -0.000000079
      5        1          -0.000000097    0.000000000    0.000000000
 -------------------------------------------------------------------
 Cartesian Forces:  Max     0.000000097 RMS     0.000000050

 GradGradGradGradGradGradGradGradGradGradGradGradGradGradGradGradGradGrad
 Berny optimization.
 Internal  Forces:  Max     0.000000097 RMS     0.000000052
 Search for a local minimum.
 Step number   1 out of a maximum of    2
 All quantities printed in internal units (Hartrees-Bohrs-Radians)
 Second derivative matrix not updated -- analytic derivatives used.
 The second derivative matrix:
                          R1        R2        R3        R4        A1
           R1           0.37684
           R2           0.00350   0.37684
           R3           0.00350   0.00350   0.37684
           R4           0.00350   0.00350   0.00350   0.37684
           A1           0.00250   0.00250  -0.00157  -0.00343   0.02402
           A2           0.00392  -0.00101   0.00436  -0.00727  -0.01048
           A3           0.00766  -0.00615  -0.00681   0.00529  -0.01585
           A4          -0.00101   0.00392   0.00436  -0.00727  -0.01048
           A5          -0.00615   0.00766  -0.00681   0.00529  -0.01585
           A6          -0.00692  -0.00692   0.00646   0.00739   0.02863
           D1          -0.00485  -0.00485  -0.00342   0.01311  -0.01659
           D2           0.00399   0.00399  -0.01026   0.00228   0.01001
           D3          -0.00525   0.00924  -0.00513   0.00114   0.00500
           D4          -0.00924   0.00525   0.00513  -0.00114  -0.00500
                          A2        A3        A4        A5        A6
           A2           0.04548
           A3          -0.02753   0.08884
           A4          -0.00219   0.02956   0.04548
           A5           0.02956  -0.04277  -0.02753   0.08884
           A6          -0.03484  -0.03225  -0.03484  -0.03225   0.10555
           D1          -0.01368   0.01817  -0.01368   0.01817   0.00760
           D2          -0.01159   0.00880  -0.01159   0.00880  -0.00443
           D3          -0.01751  -0.00094   0.00592   0.00973  -0.00222
           D4          -0.00592  -0.00973   0.01751   0.00094   0.00222
                          D1        D2        D3        D4
           D1           0.03707
           D2           0.00194   0.02303
           D3           0.00097   0.01152   0.02337
           D4          -0.00097  -0.01152   0.01185   0.02337
     Eigenvalues ---    0.04698   0.05298   0.08062   0.15957   0.16005
     Eigenvalues ---    0.37480   0.37482   0.37526   0.387331000.00000
     Eigenvalues --- 1000.000001000.000001000.000001000.00000
 Angle between quadratic step and forces=  90.00 degrees.
 Linear search not attempted -- first point.
 Iteration  1 RMS(Cart)=  0.00000013 RMS(Int)=  0.00000000
 ClnCor:  largest displacement from symmetrization is 7.45D-15 for atom     3.
 Variable       Old X    -DE/DX   Delta X   Delta X   Delta X     New X
                                 (Linear)    (Quad)   (Total)
    R1        2.04639   0.00000   0.00000   0.00000   0.00000   2.04639
    R2        2.04639   0.00000   0.00000   0.00000   0.00000   2.04639
    R3        2.04639   0.00000   0.00000   0.00000   0.00000   2.04639
    R4        2.04639   0.00000   0.00000   0.00000   0.00000   2.04639
    A1        1.91063   0.00000   0.00000   0.00000   0.00000   1.91063
    A2        1.91063   0.00000   0.00000   0.00000   0.00000   1.91063
    A3        1.91063   0.00000   0.00000   0.00000   0.00000   1.91063
    A4        1.91063   0.00000   0.00000   0.00000   0.00000   1.91063
    A5        1.91063   0.00000   0.00000   0.00000   0.00000   1.91063
    A6        1.91063   0.00000   0.00000   0.00000   0.00000   1.91063
    D1       -2.09440   0.00000   0.00000   0.00000   0.00000  -2.09440
    D2        2.09440   0.00000   0.00000   0.00000   0.00000   2.09440
    D3       -2.09440   0.00000   0.00000   0.00000   0.00000  -2.09440
    D4        2.09440   0.00000   0.00000   0.00000   0.00000   2.09440
         Item               Value     Threshold  Converged?
 Maximum Force            0.000000     0.000450     YES
 RMS     Force            0.000000     0.000300     YES
 Maximum Displacement     0.000000     0.001800     YES
 RMS     Displacement     0.000000     0.001200     YES
 Predicted change in Energy=-4.875508D-14
 Optimization completed.
    -- Stationary point found.
                           ----------------------------
                           !   Optimized Parameters   !
                           ! (Angstroms and Degrees)  !
 --------------------------                            --------------------------
 ! Name  Definition              Value          Derivative Info.                !
 --------------------------------------------------------------------------------
 ! R1    R(1,2)                  1.0829         -DE/DX =    0.0                 !
 ! R2    R(1,3)                  1.0829         -DE/DX =    0.0                 !
 ! R3    R(1,4)                  1.0829         -DE/DX =    0.0                 !
 ! R4    R(1,5)                  1.0829         -DE/DX =    0.0                 !
 ! A1    A(2,1,3)              109.4712         -DE/DX =    0.0                 !
 ! A2    A(2,1,4)              109.4712         -DE/DX =    0.0                 !
 ! A3    A(2,1,5)              109.4712         -DE/DX =    0.0                 !
 ! A4    A(3,1,4)              109.4712         -DE/DX =    0.0                 !
 ! A5    A(3,1,5)              109.4712         -DE/DX =    0.0                 !
 ! A6    A(4,1,5)              109.4712         -DE/DX =    0.0                 !
 ! D1    D(2,1,4,3)           -120.0            -DE/DX =    0.0                 !
 ! D2    D(2,1,5,3)            120.0            -DE/DX =    0.0                 !
 ! D3    D(2,1,5,4)           -120.0            -DE/DX =    0.0                 !
 ! D4    D(3,1,5,4)            120.0            -DE/DX =    0.0                 !
 --------------------------------------------------------------------------------
 GradGradGradGradGradGradGradGradGradGradGradGradGradGradGradGradGradGrad

 1|1|UNPC-123-PC|Freq|RHF|3-21G|C1H4|123|23-Oct-2016|0||#N Geom=AllChec
 k Guess=TCheck SCRF=Check GenChk RHF/3-21G Freq||Title Card Required||
 0,1|C,3.020233371,-0.384572525,-0.873651501|H,3.3811881494,-1.40554614
 09,-0.8736524272|H,3.3812074448,0.1259071928,0.0105338032|H,3.38120593
 45,0.1259082631,-1.7578368038|H,1.9373319552,-0.384559415,-0.873650576
 1||Version=IA32W-G09RevA.02|State=1-A1|HF=-39.9768776|RMSD=3.934e-010|
 RMSF=5.018e-008|ZeroPoint=0.0479957|Thermal=0.0508454|Dipole=0.,0.,0.|
 DipoleDeriv=-0.0222729,0.,0.,0.,-0.0222729,0.,0.,0.,-0.0222729,0.05978
 59,0.0766704,0.,0.0766704,-0.1299731,-0.0000002,0.,-0.0000002,0.086891
 9,0.059783,-0.0383367,-0.0664018,-0.0383367,0.0326772,-0.0939036,-0.06
 64018,-0.0939036,-0.0757555,0.0597832,-0.0383366,0.0664015,-0.0383366,
 0.0326769,0.0939038,0.0664015,0.0939038,-0.0757555,-0.1570792,0.000003
 ,0.0000002,0.000003,0.0868919,0.,0.0000002,0.,0.0868919|Polar=11.45226
 4,0.,11.452264,0.,0.,11.452264|PolarDeriv=4.945444,-0.0001197,-2.47267
 97,-0.0000084,-0.000003,-2.4727643,-0.0001197,-2.4726797,3.4970468,-0.
 000003,0.0000085,-3.4969271,-0.0000084,-0.000003,0.0000085,-2.4727643,
 -3.4969271,0.,1.2635638,-2.9541166,1.029271,-0.0000011,0.0000009,0.635
 7064,-0.6061553,1.8593687,-7.8757983,0.0000009,-0.0000052,0.198469,0.0
 000011,0.0000009,-0.000003,1.4658041,-2.1494922,-0.0000055,1.2636869,1
 .4770794,0.7340968,2.5583633,0.170432,0.930914,0.3031151,1.5642389,2.5
 220943,0.170432,2.6788629,1.3164754,0.5249779,0.170432,0.6454775,1.761
 0561,2.4904397,6.003222,1.2636773,1.4770819,0.7340961,-2.5583591,-0.17
 04305,0.9309121,0.3031151,1.5642347,2.5221016,-0.1704305,-2.6788671,1.
 3164768,-0.5249737,-0.1704305,-0.6454817,1.7610507,2.4904436,-6.003222
 ,-8.7363732,0.000075,-0.0247838,0.0000053,0.0000006,-0.0247676,0.00004
 49,-2.5151621,-0.6654452,0.0000006,0.0000009,0.6655067,0.0000032,0.000
 0006,-0.0000012,-2.515146,0.6655368,0.0000055|HyperPolar=-32.0900613,0
 .000777,16.0447559,-22.6916827,0.0000548,0.0000194,-0.0000549,16.04530
 54,22.6909057,0.|PG=TD [O(C1),4C3(H1)]|NImag=0||0.61108219,0.,0.611082
 19,0.,0.,0.61108219,-0.08969901,0.08919090,0.00000008,0.09213770,0.089
 19090,-0.31044616,-0.00000023,-0.10065219,0.34125151,0.00000008,-0.000
 00023,-0.05816647,-0.00000009,0.00000026,0.05655315,-0.08970238,-0.044
 59722,-0.07724539,0.00458999,0.00593021,0.01282648,0.09214151,-0.04459
 722,-0.12123464,-0.10923833,-0.01407391,-0.01652419,-0.03184826,0.0503
 2809,0.12772576,-0.07724539,-0.10923833,-0.24737462,0.00127749,0.00081
 842,0.00139063,0.08717164,0.12327577,0.27007509,-0.08970211,-0.0445971
 2,0.07724506,0.00458996,0.00593022,-0.01282648,0.00459027,0.00814324,-
 0.01154959,0.09214121,-0.04459712,-0.12123491,0.10923855,-0.01407385,-
 0.01652423,0.03184826,0.00814320,0.01034796,-0.01633312,0.05032798,0.1
 2772606,0.07724506,0.10923855,-0.24737462,-0.00127751,-0.00081846,0.00
 139070,0.01154955,0.01633315,-0.02548180,-0.08717128,-0.12327603,0.270
 07509,-0.34197870,0.00000344,0.00000024,-0.01161865,-0.00039915,0.,-0.
 01161939,0.00019980,0.00034585,-0.01161933,0.00019979,-0.00034582,0.37
 683607,0.00000344,-0.05816647,0.,0.03960905,0.00224308,-0.00000003,-0.
 01980428,-0.00031488,0.00147726,-0.01980433,-0.00031488,-0.00147723,-0
 .00000388,0.05655315,0.00000024,0.,-0.05816647,0.00000003,0.,-0.001168
 01,-0.03430228,0.00147766,0.00139070,0.03430228,-0.00147767,0.00139063
 ,-0.00000027,0.,0.05655315||0.,0.,0.,-0.00000003,0.00000009,0.,-0.0000
 0003,-0.00000005,-0.00000008,-0.00000003,-0.00000005,0.00000008,0.0000
 0010,0.,0.|||@


 ALL MY ATTEMPTS TO ADAPT THE THEORETICAL FOUNDATIONS OF PHYSICS
 TO THESE NEW NOTIONS FAILED COMPLETELY. IT WAS AS IF THE GROUND HAD
 BEEN PULLED OUT FROM UNDER ONE WITH NO FIRM FOUNDATION TO BE SEEN ANYWHERE,
 UPON WHICH ONE COULD HAVE BUILT.  -- A.EINSTEIN
 Job cpu time:  0 days  0 hours  0 minutes  3.0 seconds.
 File lengths (MBytes):  RWF=      5 Int=      0 D2E=      0 Chk=      1 Scr=      1
 Normal termination of Gaussian 09 at Sun Oct 23 10:21:59 2016.
