 Entering Link 1 = C:\G09W\l1.exe PID=      6236.
  
 Copyright (c) 1988,1990,1992,1993,1995,1998,2003,2009, Gaussian, Inc.
                  All Rights Reserved.
  
 This is part of the Gaussian(R) 09 program.  It is based on
 the Gaussian(R) 03 system (copyright 2003, Gaussian, Inc.),
 the Gaussian(R) 98 system (copyright 1998, Gaussian, Inc.),
 the Gaussian(R) 94 system (copyright 1995, Gaussian, Inc.),
 the Gaussian 92(TM) system (copyright 1992, Gaussian, Inc.),
 the Gaussian 90(TM) system (copyright 1990, Gaussian, Inc.),
 the Gaussian 88(TM) system (copyright 1988, Gaussian, Inc.),
 the Gaussian 86(TM) system (copyright 1986, Carnegie Mellon
 University), and the Gaussian 82(TM) system (copyright 1983,
 Carnegie Mellon University). Gaussian is a federally registered
 trademark of Gaussian, Inc.
  
 This software contains proprietary and confidential information,
 including trade secrets, belonging to Gaussian, Inc.
  
 This software is provided under written license and may be
 used, copied, transmitted, or stored only in accord with that
 written license.
  
 The following legend is applicable only to US Government
 contracts under FAR:
  
                    RESTRICTED RIGHTS LEGEND
  
 Use, reproduction and disclosure by the US Government is
 subject to restrictions as set forth in subparagraphs (a)
 and (c) of the Commercial Computer Software - Restricted
 Rights clause in FAR 52.227-19.
  
 Gaussian, Inc.
 340 Quinnipiac St., Bldg. 40, Wallingford CT 06492
  
  
 ---------------------------------------------------------------
 Warning -- This program may not be used in any manner that
 competes with the business of Gaussian, Inc. or will provide
 assistance to any competitor of Gaussian, Inc.  The licensee
 of this program is prohibited from giving any competitor of
 Gaussian, Inc. access to this program.  By using this program,
 the user acknowledges that Gaussian, Inc. is engaged in the
 business of creating and licensing software in the field of
 computational chemistry and represents and warrants to the
 licensee that it is not a competitor of Gaussian, Inc. and that
 it will not use this program in any manner prohibited above.
 ---------------------------------------------------------------
  

 Cite this work as:
 Gaussian 09, Revision A.02,
 M. J. Frisch, G. W. Trucks, H. B. Schlegel, G. E. Scuseria, 
 M. A. Robb, J. R. Cheeseman, G. Scalmani, V. Barone, B. Mennucci, 
 G. A. Petersson, H. Nakatsuji, M. Caricato, X. Li, H. P. Hratchian, 
 A. F. Izmaylov, J. Bloino, G. Zheng, J. L. Sonnenberg, M. Hada, 
 M. Ehara, K. Toyota, R. Fukuda, J. Hasegawa, M. Ishida, T. Nakajima, 
 Y. Honda, O. Kitao, H. Nakai, T. Vreven, J. A. Montgomery, Jr., 
 J. E. Peralta, F. Ogliaro, M. Bearpark, J. J. Heyd, E. Brothers, 
 K. N. Kudin, V. N. Staroverov, R. Kobayashi, J. Normand, 
 K. Raghavachari, A. Rendell, J. C. Burant, S. S. Iyengar, J. Tomasi, 
 M. Cossi, N. Rega, J. M. Millam, M. Klene, J. E. Knox, J. B. Cross, 
 V. Bakken, C. Adamo, J. Jaramillo, R. Gomperts, R. E. Stratmann, 
 O. Yazyev, A. J. Austin, R. Cammi, C. Pomelli, J. W. Ochterski, 
 R. L. Martin, K. Morokuma, V. G. Zakrzewski, G. A. Voth, 
 P. Salvador, J. J. Dannenberg, S. Dapprich, A. D. Daniels, 
 O. Farkas, J. B. Foresman, J. V. Ortiz, J. Cioslowski, 
 and D. J. Fox, Gaussian, Inc., Wallingford CT, 2009.
 
 ******************************************
 Gaussian 09:  IA32W-G09RevA.02 11-Jun-2009
                19-Oct-2016 
 ******************************************
 %nprocshared=1
 Will use up to    1 processors via shared memory.
 %chk=D:\Gaussian Result\CrFeCO-\CrFeCO- OK_meng\Ni2CO5-_221_A_2th_2_C2v_1_big_ch
 k.chk
 %mem=400MB
 ----------------------------------------------------------------------
 # opt=(tight,cartesian) freq ub3lyp/6-311+g(d) int=ultrafine iop(1/8=1
 0) scf=(maxcyc=80,xqc) symm=on
 ----------------------------------------------------------------------
 1/7=10,8=10,10=7,14=-1,18=10,26=3,38=1/1,3;
 2/12=2,15=-1,17=6,18=5,29=2,40=1/2;
 3/5=4,6=6,7=11,11=2,16=1,25=1,30=1,71=1,74=-5,75=-5,116=2/1,2,3;
 4//1;
 5/5=2,7=80,8=3,13=1,38=5/2,8;
 6/7=2,8=2,9=2,10=2,28=1/1;
 7/7=1,29=1,30=1/1,2,3,16;
 1/7=10,8=10,10=7,14=-1,18=10/3(2);
 2/29=1/2;
 99/12=1/99;
 2/29=1/2;
 3/5=4,6=6,7=11,11=2,16=1,25=1,30=1,71=1,74=-5,75=-5,116=2/1,2,3;
 4/5=5,16=3/1;
 5/5=2,7=80,8=3,13=1,38=5/2,8;
 7/7=1,30=1/1,2,3,16;
 1/7=10,8=10,14=-1,18=10/3(-5);
 2/29=1/2;
 6/7=2,8=2,9=2,10=2,19=2,28=1/1;
 99/9=1,12=1/99;
 ------------------------
 from Ni2CO5-_221_A_2th_2
 ------------------------
 Symbolic Z-matrix:
 Charge = -1 Multiplicity = 2
 Ni                    0.        0.        1.33191 
 Ni                    0.        0.       -1.04957 
 C                     0.        0.        3.07187 
 C                     0.        1.57056   0.25426 
 C                    -1.52617   0.       -1.98377 
 C                     1.52617   0.       -1.98377 
 C                     0.       -1.57056   0.25426 
 O                     0.        2.73667   0.15699 
 O                    -2.49112   0.       -2.6215 
 O                     2.49112   0.       -2.6215 
 O                     0.       -2.73667   0.15699 
 O                     0.        0.        4.2312 
 

 GradGradGradGradGradGradGradGradGradGradGradGradGradGradGradGradGradGrad
 Berny optimization.
 Initialization pass.
 No Z-matrix variables, so optimization will use Cartesian coordinates.
 Trust Radius=1.00D-01 FncErr=1.00D-07 GrdErr=1.00D-06
 Number of steps in this run=  46 maximum allowed number of steps= 100.
 GradGradGradGradGradGradGradGradGradGradGradGradGradGradGradGradGradGrad

 ---------------------------------------------------------------------------------------------------
                            Z-MATRIX (ANGSTROMS AND DEGREES)
   CD    Cent   Atom    N1       Length/X        N2       Alpha/Y        N3        Beta/Z          J
 ---------------------------------------------------------------------------------------------------
      1      1  Ni       0   0.000000          0.000000          1.331911
      2      2  Ni       0   0.000000          0.000000         -1.049571
      3      3  C        0   0.000000          0.000000          3.071868
      4      4  C        0   0.000000          1.570561          0.254260
      5      5  C        0  -1.526171          0.000000         -1.983766
      6      6  C        0   1.526171          0.000000         -1.983766
      7      7  C        0   0.000000         -1.570561          0.254260
      8      8  O        0   0.000000          2.736669          0.156985
      9      9  O        0  -2.491116          0.000000         -2.621500
     10     10  O        0   2.491116          0.000000         -2.621500
     11     11  O        0   0.000000         -2.736669          0.156985
     12     12  O        0   0.000000          0.000000          4.231196
 ---------------------------------------------------------------------------------------------------
                         Z-Matrix orientation:                         
 ---------------------------------------------------------------------
 Center     Atomic      Atomic             Coordinates (Angstroms)
 Number     Number       Type             X           Y           Z
 ---------------------------------------------------------------------
      1         28           0        0.000000    0.000000    1.331911
      2         28           0        0.000000    0.000000   -1.049571
      3          6           0        0.000000    0.000000    3.071868
      4          6           0        0.000000    1.570561    0.254260
      5          6           0       -1.526171    0.000000   -1.983766
      6          6           0        1.526171    0.000000   -1.983766
      7          6           0        0.000000   -1.570561    0.254260
      8          8           0        0.000000    2.736669    0.156985
      9          8           0       -2.491116    0.000000   -2.621500
     10          8           0        2.491116    0.000000   -2.621500
     11          8           0        0.000000   -2.736669    0.156985
     12          8           0        0.000000    0.000000    4.231196
 ---------------------------------------------------------------------
                    Distance matrix (angstroms):
                    1          2          3          4          5
     1  Ni   0.000000
     2  Ni   2.381482   0.000000
     3  C    1.739957   4.121439   0.000000
     4  C    1.904729   2.041234   3.225768   0.000000
     5  C    3.650056   1.789390   5.280969   3.131233   0.000000
     6  C    3.650056   1.789390   5.280969   3.131233   3.052342
     7  C    1.904729   2.041234   3.225768   3.141122   3.131233
     8  O    2.978222   2.990842   3.998237   1.170158   3.794914
     9  O    4.672806   2.945610   6.214507   4.116105   1.156643
    10  O    4.672806   2.945610   6.214507   4.116105   4.067591
    11  O    2.978222   2.990842   3.998237   4.308328   3.794914
    12  O    2.899285   5.280767   1.159328   4.275825   6.399606
                    6          7          8          9         10
     6  C    0.000000
     7  C    3.131233   0.000000
     8  O    3.794914   4.308328   0.000000
     9  O    4.067591   4.116105   4.627634   0.000000
    10  O    1.156643   4.116105   4.627634   4.982232   0.000000
    11  O    3.794914   1.170158   5.473338   4.627634   4.627634
    12  O    6.399606   4.275825   4.908009   7.291440   7.291440
                   11         12
    11  O    0.000000
    12  O    4.908009   0.000000
 Stoichiometry    C5Ni2O5(1-,2)
 Framework group  C2V[C2(NiNiCO),SGV(C2O2),SGV'(C2O2)]
 Deg. of freedom    11
 Full point group                 C2V     NOp   4
 Largest Abelian subgroup         C2V     NOp   4
 Largest concise Abelian subgroup C2V     NOp   4
                         Standard orientation:                         
 ---------------------------------------------------------------------
 Center     Atomic      Atomic             Coordinates (Angstroms)
 Number     Number       Type             X           Y           Z
 ---------------------------------------------------------------------
      1         28           0        0.000000    0.000000    1.331911
      2         28           0        0.000000    0.000000   -1.049571
      3          6           0        0.000000    0.000000    3.071868
      4          6           0        0.000000    1.570561    0.254260
      5          6           0       -1.526171    0.000000   -1.983766
      6          6           0        1.526171    0.000000   -1.983766
      7          6           0        0.000000   -1.570561    0.254260
      8          8           0        0.000000    2.736669    0.156985
      9          8           0       -2.491116    0.000000   -2.621500
     10          8           0        2.491116    0.000000   -2.621500
     11          8           0        0.000000   -2.736669    0.156985
     12          8           0        0.000000    0.000000    4.231196
 ---------------------------------------------------------------------
 Rotational constants (GHZ):      0.9135526      0.4443909      0.4277059
 Standard basis: 6-311+G(d) (5D, 7F)
 There are   140 symmetry adapted basis functions of A1  symmetry.
 There are    36 symmetry adapted basis functions of A2  symmetry.
 There are    80 symmetry adapted basis functions of B1  symmetry.
 There are    80 symmetry adapted basis functions of B2  symmetry.
 Integral buffers will be    262144 words long.
 Raffenetti 2 integral format.
 Two-electron integral symmetry is turned on.
   336 basis functions,   548 primitive gaussians,   360 cartesian basis functions
    64 alpha electrons       63 beta electrons
       nuclear repulsion energy      1275.5214389129 Hartrees.
 NAtoms=   12 NActive=   12 NUniq=    8 SFac= 1.69D+00 NAtFMM=   80 NAOKFM=F Big=F
 One-electron integrals computed using PRISM.
 NBasis=   336 RedAO= T  NBF=   140    36    80    80
 NBsUse=   336 1.00D-06 NBFU=   140    36    80    80
 Harris functional with IExCor=  402 diagonalized for initial guess.
 ExpMin= 1.39D-02 ExpMax= 2.85D+05 ExpMxC= 9.63D+03 IAcc=3 IRadAn=         5 AccDes= 0.00D+00
 HarFok:  IExCor=  402 AccDes= 0.00D+00 IRadAn=         5 IDoV= 1
 ScaDFX=  1.000000  1.000000  1.000000  1.000000
 FoFCou: FMM=F IPFlag=           0 FMFlag=      100000 FMFlg1=           0
         NFxFlg=           0 DoJE=T BraDBF=F KetDBF=T FulRan=T
         Omega=  0.000000  0.000000  1.000000  0.000000  0.000000 ICntrl=     500 IOpCl=  0
         NMat0=    1 NMatS0=    1 NMatT0=    0 NMatD0=    1 NMtDS0=    0 NMtDT0=    0
         I1Cent=           4 NGrid=           0.
 Petite list used in FoFCou.
 Initial guess orbital symmetries:
 Alpha Orbitals:
       Occupied  (A1) (A1) (A1) (A1) (A1) (B2) (B1) (B1) (A1) (B2)
                 (B1) (A1) (A1) (A1) (B2) (A1) (B2) (A1) (B1) (A1)
                 (A1) (A1) (A1) (B1) (A1) (B2) (B2) (B1) (A1) (B1)
                 (A1) (A1) (B2) (A1) (B2) (A1) (A1) (B1) (A1) (A1)
                 (B2) (B2) (A1) (B1) (A2) (A1) (B1) (B2) (B2) (A1)
                 (B1) (A2) (B1) (A1) (B1) (A2) (A1) (B2) (A2) (B2)
                 (A1) (B1) (A1) (B2)
       Virtual   (B1) (A2) (A1) (B1) (B1) (B2) (A2) (A1) (B2) (A1)
                 (A1) (B1) (B2) (A1) (B1) (A1) (B2) (A1) (A2) (A1)
                 (A1) (B1) (A1) (B2) (B1) (A2) (A1) (B2) (B1) (A1)
                 (B2) (A1) (B2) (B1) (A1) (B1) (B2) (A1) (A1) (A2)
                 (B1) (A1) (B2) (B1) (A1) (A1) (B1) (B2) (A1) (B1)
                 (A1) (B2) (A1) (A2) (B2) (B1) (A1) (A1) (B2) (A1)
                 (B1) (B1) (A2) (B2) (A1) (A1) (B2) (A1) (B2) (A2)
                 (A1) (B1) (A1) (B2) (A1) (B1) (A1) (A2) (B1) (B2)
                 (B2) (A2) (A1) (B1) (A1) (B1) (B2) (B2) (A1) (B1)
                 (A1) (B2) (A1) (A1) (B1) (A1) (A1) (B1) (B2) (A1)
                 (A1) (A1) (A2) (B2) (B1) (A2) (B1) (B1) (A1) (A1)
                 (B2) (A1) (B1) (B2) (A1) (B2) (A1) (A2) (B2) (A2)
                 (A2) (A1) (B1) (B1) (B2) (A2) (B1) (B1) (A1) (A1)
                 (B2) (B1) (A1) (B2) (A1) (B2) (A2) (A1) (B2) (B1)
                 (A1) (A2) (B2) (A1) (B1) (A1) (A2) (B1) (A1) (A1)
                 (B1) (A1) (B2) (B2) (A1) (B2) (B1) (A1) (B2) (A1)
                 (B1) (A2) (B1) (A2) (A1) (B2) (B1) (B2) (A1) (A1)
                 (A2) (A2) (B1) (B1) (A1) (A2) (B2) (A1) (B2) (A1)
                 (B1) (B2) (A1) (A1) (B1) (A1) (B2) (A1) (A2) (B1)
                 (B1) (B2) (A2) (B1) (B2) (A1) (A1) (B2) (A2) (B1)
                 (B2) (A1) (A2) (B2) (B1) (A1) (B1) (B2) (B1) (A1)
                 (B2) (A1) (A1) (B2) (B1) (A1) (A1) (A1) (A1) (A2)
                 (B1) (B2) (B1) (A2) (B1) (B2) (A1) (B2) (A1) (B2)
                 (A1) (B1) (A1) (A1) (A2) (A1) (B1) (A2) (A1) (B2)
                 (A1) (B2) (B1) (A1) (B1) (B2) (B2) (B1) (A1) (A1)
                 (B2) (A1) (A1) (B1) (A1) (A1) (A1) (B1) (B2) (B2)
                 (B1) (A1) (A1) (B2) (A1) (A1) (A1) (B1) (A1) (A1)
                 (A1) (A1)
 Beta  Orbitals:
       Occupied  (A1) (A1) (A1) (A1) (A1) (B2) (B1) (B1) (A1) (B2)
                 (B1) (A1) (A1) (A1) (B2) (A1) (B2) (A1) (B1) (A1)
                 (A1) (A1) (A1) (B1) (A1) (B2) (B2) (B1) (A1) (B1)
                 (A1) (A1) (B2) (A1) (B2) (A1) (A1) (B1) (A1) (A1)
                 (B2) (B2) (A1) (B1) (A2) (A1) (B1) (B2) (B2) (A1)
                 (B1) (A2) (B1) (A1) (B1) (A2) (A1) (B2) (A2) (B2)
                 (A1) (B1) (A1)
       Virtual   (B2) (B1) (A2) (A1) (B1) (B1) (B2) (A2) (A1) (B2)
                 (A1) (A1) (B1) (B2) (A1) (B1) (A1) (B2) (A1) (A2)
                 (A1) (A1) (B1) (A1) (B2) (B1) (A2) (A1) (B2) (B1)
                 (A1) (B2) (A1) (B2) (B1) (A1) (B1) (B2) (A1) (A1)
                 (A2) (B1) (A1) (B2) (B1) (A1) (A1) (B1) (B2) (A1)
                 (B1) (A1) (B2) (A1) (A2) (B2) (B1) (A1) (A1) (B2)
                 (A1) (B1) (B1) (A2) (B2) (A1) (A1) (B2) (A1) (B2)
                 (A2) (A1) (B1) (A1) (B2) (A1) (B1) (A1) (A2) (B1)
                 (B2) (B2) (A2) (A1) (B1) (A1) (B1) (B2) (B2) (A1)
                 (B1) (A1) (B2) (A1) (A1) (B1) (A1) (A1) (B1) (B2)
                 (A1) (A1) (A1) (A2) (B2) (B1) (A2) (B1) (B1) (A1)
                 (A1) (B2) (A1) (B1) (B2) (A1) (B2) (A1) (A2) (B2)
                 (A2) (A2) (A1) (B1) (B1) (B2) (A2) (B1) (B1) (A1)
                 (A1) (B2) (B1) (A1) (B2) (A1) (B2) (A2) (A1) (B2)
                 (B1) (A1) (A2) (B2) (A1) (B1) (A1) (A2) (B1) (A1)
                 (A1) (B1) (A1) (B2) (B2) (A1) (B2) (B1) (A1) (B2)
                 (A1) (B1) (A2) (B1) (A2) (A1) (B2) (B1) (B2) (A1)
                 (A1) (A2) (A2) (B1) (B1) (A1) (A2) (B2) (A1) (B2)
                 (A1) (B1) (B2) (A1) (A1) (B1) (A1) (B2) (A1) (A2)
                 (B1) (B1) (B2) (A2) (B1) (B2) (A1) (A1) (B2) (A2)
                 (B1) (B2) (A1) (A2) (B2) (B1) (A1) (B1) (B2) (B1)
                 (A1) (B2) (A1) (A1) (B2) (B1) (A1) (A1) (A1) (A1)
                 (A2) (B1) (B2) (B1) (A2) (B1) (B2) (A1) (B2) (A1)
                 (B2) (A1) (B1) (A1) (A1) (A2) (A1) (B1) (A2) (A1)
                 (B2) (A1) (B2) (B1) (A1) (B1) (B2) (B2) (B1) (A1)
                 (A1) (B2) (A1) (A1) (B1) (A1) (A1) (A1) (B1) (B2)
                 (B2) (B1) (A1) (A1) (B2) (A1) (A1) (A1) (B1) (A1)
                 (A1) (A1) (A1)
 The electronic state of the initial guess is 2-B2.
 Initial guess <Sx>= 0.0000 <Sy>= 0.0000 <Sz>= 0.5000 <S**2>= 0.7500 S= 0.5000
 Requested convergence on RMS density matrix=1.00D-08 within  80 cycles.
 Requested convergence on MAX density matrix=1.00D-06.
 Requested convergence on             energy=1.00D-06.
 No special actions if energy rises.
 EnCoef did   100 forward-backward iterations
 EnCoef did   100 forward-backward iterations
 EnCoef did    19 forward-backward iterations
 EnCoef did     3 forward-backward iterations
 EnCoef did     3 forward-backward iterations
 EnCoef did     1 forward-backward iterations
 Restarting incremental Fock formation.
 SCF Done:  E(UB3LYP) =  -3583.61553533     A.U. after   23 cycles
             Convg  =    0.4158D-08             -V/T =  2.0012
 <Sx>= 0.0000 <Sy>= 0.0000 <Sz>= 0.5000 <S**2>= 0.7724 S= 0.5112
 <L.S>= 0.000000000000E+00
 Annihilation of the first spin contaminant:
 S**2 before annihilation     0.7724,   after     0.7504
 QCSCF skips out because SCF is already converged.

 **********************************************************************

            Population analysis using the SCF density.

 **********************************************************************

 Orbital symmetries:
 Alpha Orbitals:
       Occupied  (A1) (A1) (A1) (A1) (B1) (A1) (B2) (A1) (B2) (B1)
                 (B1) (A1) (A1) (A1) (B2) (A1) (B1) (A1) (A1) (B2)
                 (A1) (A1) (B1) (A1) (A1) (B2) (B2) (B1) (A1) (B1)
                 (A1) (A1) (B2) (A1) (A1) (B1) (A1) (B2) (A1) (A1)
                 (B2) (A2) (A1) (B2) (B1) (B1) (A1) (B2) (B2) (B1)
                 (A2) (A1) (B1) (A1) (A2) (B1) (A1) (B2) (A2) (A1)
                 (A1) (B2) (B1) (B2)
       Virtual   (B1) (A1) (A1) (A1) (B2) (A2) (B1) (A1) (A2) (B1)
                 (B2) (B1) (B2) (A1) (A1) (B2) (B1) (A1) (A1) (A1)
                 (B1) (A2) (B2) (A1) (A2) (B1) (A1) (B2) (B2) (B1)
                 (B1) (A1) (A1) (B2) (A1) (B2) (B1) (A1) (A1) (B1)
                 (A2) (B2) (A1) (B1) (A1) (B2) (A1) (B1) (A1) (A2)
                 (B1) (A1) (B2) (B2) (A1) (A1) (B1) (B1) (A1) (B2)
                 (A1) (A1) (B2) (B1) (A2) (A1) (B2) (A1) (A2) (A1)
                 (B2) (A1) (B1) (B2) (B1) (A1) (A2) (A1) (B1) (B2)
                 (B2) (A2) (B1) (A1) (B1) (B2) (A1) (A1) (B2) (B1)
                 (A1) (B2) (A1) (A1) (B1) (A1) (A1) (B1) (B2) (A1)
                 (A1) (A1) (B2) (A2) (B1) (A2) (B1) (B1) (A1) (B2)
                 (A1) (A1) (A1) (B1) (B2) (B2) (A1) (A2) (A2) (B2)
                 (A1) (B1) (A2) (B1) (B2) (A2) (B1) (A1) (B2) (A1)
                 (B1) (B1) (A1) (A1) (B2) (B2) (A1) (A2) (B1) (B2)
                 (A1) (A1) (B2) (A2) (A1) (B1) (A2) (B1) (A1) (B1)
                 (A1) (A1) (B2) (B2) (A1) (B2) (B1) (A1) (B2) (A1)
                 (B1) (A2) (B1) (A1) (A2) (B2) (B2) (B1) (A1) (A2)
                 (A2) (A1) (B1) (B2) (A1) (A1) (B1) (A2) (B2) (B1)
                 (A1) (B2) (A1) (A1) (B1) (A1) (B2) (A1) (B1) (A2)
                 (B1) (B2) (A2) (B2) (B1) (A1) (A1) (B2) (B1) (A2)
                 (A1) (B2) (A2) (B2) (B1) (B1) (A1) (B1) (B2) (A1)
                 (B2) (A1) (A1) (B2) (B1) (A1) (A1) (A1) (A1) (B2)
                 (A2) (B1) (A2) (B1) (B2) (B1) (A1) (B2) (A1) (B2)
                 (B1) (A1) (A1) (A1) (A2) (A1) (A2) (B1) (A1) (B2)
                 (A1) (B2) (B1) (A1) (B1) (B2) (B2) (B1) (A1) (A1)
                 (A1) (B2) (B1) (A1) (A1) (A1) (A1) (B1) (B2) (B2)
                 (B1) (A1) (A1) (B2) (A1) (A1) (B1) (A1) (A1) (A1)
                 (A1) (A1)
 Beta  Orbitals:
       Occupied  (A1) (A1) (A1) (A1) (B1) (A1) (B2) (A1) (B2) (B1)
                 (B1) (A1) (A1) (A1) (B2) (B1) (A1) (A1) (A1) (B2)
                 (A1) (A1) (B1) (A1) (A1) (B2) (B2) (B1) (A1) (B1)
                 (A1) (A1) (B2) (A1) (A1) (B1) (A1) (B2) (A1) (A1)
                 (A1) (B1) (B1) (B2) (A2) (B2) (B1) (B2) (A1) (B1)
                 (A2) (A1) (B2) (A1) (A2) (B1) (B2) (A1) (A2) (A1)
                 (A1) (B1) (B2)
       Virtual   (B2) (B1) (A1) (A1) (A1) (B2) (A2) (B1) (B1) (A2)
                 (B1) (A1) (B2) (A1) (B2) (A1) (B1) (B2) (A1) (A1)
                 (B1) (A1) (A2) (B2) (A1) (A2) (B1) (A1) (B2) (B2)
                 (B1) (B1) (A1) (A1) (B2) (A1) (B2) (B1) (A1) (A1)
                 (B1) (A2) (B2) (A1) (B1) (B2) (A1) (A1) (B1) (A1)
                 (A2) (B1) (A1) (B2) (B2) (A1) (A1) (B1) (B1) (A1)
                 (B2) (A1) (A1) (B1) (B2) (A1) (A2) (B2) (A1) (A2)
                 (A1) (B2) (A1) (B1) (B2) (B1) (A1) (A2) (A1) (B1)
                 (B2) (A2) (B2) (B1) (A1) (B1) (B2) (A1) (A1) (B2)
                 (B1) (A1) (B2) (A1) (A1) (B1) (A1) (A1) (B1) (B2)
                 (A1) (A1) (A1) (B2) (A2) (B1) (A2) (B1) (B1) (A1)
                 (A1) (B2) (A1) (A1) (B1) (B2) (B2) (A1) (A2) (A2)
                 (B2) (A1) (B1) (A2) (B1) (B2) (A2) (B1) (A1) (B2)
                 (B1) (A1) (B1) (A1) (A1) (B2) (B2) (A1) (A2) (B1)
                 (B2) (A1) (A1) (A2) (B2) (A1) (B1) (A2) (B1) (A1)
                 (B1) (A1) (A1) (B2) (B2) (A1) (B2) (B1) (A1) (B2)
                 (A1) (B1) (A2) (B1) (A1) (A2) (B2) (B1) (B2) (A1)
                 (A2) (A1) (A2) (B1) (A1) (B2) (A1) (B1) (A2) (B2)
                 (B1) (A1) (B2) (A1) (A1) (B1) (A1) (B2) (A1) (B1)
                 (A2) (B1) (B2) (A2) (B2) (B1) (A1) (A1) (B2) (B1)
                 (A2) (A1) (B2) (A2) (B2) (B1) (B1) (A1) (B1) (B2)
                 (A1) (B2) (A1) (A1) (B2) (B1) (A1) (A1) (A1) (A1)
                 (B1) (A2) (B2) (A2) (B1) (B2) (B1) (A1) (B2) (A1)
                 (B2) (B1) (A1) (A1) (A1) (A2) (A1) (A2) (B1) (A1)
                 (B2) (A1) (B2) (B1) (A1) (B1) (B2) (B2) (B1) (A1)
                 (A1) (A1) (B2) (B1) (A1) (A1) (A1) (A1) (B1) (B2)
                 (B2) (B1) (A1) (A1) (B2) (A1) (A1) (B1) (A1) (A1)
                 (A1) (A1) (A1)
 The electronic state is 2-B2.
 Alpha  occ. eigenvalues -- -299.68365-299.66374 -35.61316 -35.58875 -31.06064
 Alpha  occ. eigenvalues --  -31.05738 -31.05240 -31.03746 -31.03524 -31.02570
 Alpha  occ. eigenvalues --  -19.06576 -19.06576 -19.06387 -19.04284 -19.04283
 Alpha  occ. eigenvalues --  -10.14738 -10.14738 -10.14387 -10.13505 -10.13505
 Alpha  occ. eigenvalues --   -3.87117  -3.85012  -2.46918  -2.46353  -2.45250
 Alpha  occ. eigenvalues --   -2.45120  -2.44279  -2.42661  -0.99947  -0.99934
 Alpha  occ. eigenvalues --   -0.99607  -0.97274  -0.97261  -0.45404  -0.43957
 Alpha  occ. eigenvalues --   -0.43456  -0.42908  -0.42652  -0.35129  -0.33352
 Alpha  occ. eigenvalues --   -0.32714  -0.32642  -0.32543  -0.32353  -0.32108
 Alpha  occ. eigenvalues --   -0.32056  -0.31268  -0.31106  -0.31016  -0.30865
 Alpha  occ. eigenvalues --   -0.30059  -0.30017  -0.29985  -0.15279  -0.14609
 Alpha  occ. eigenvalues --   -0.14087  -0.13064  -0.12899  -0.11708  -0.10538
 Alpha  occ. eigenvalues --   -0.10049  -0.09661  -0.09559  -0.01015
 Alpha virt. eigenvalues --    0.05654   0.09095   0.09130   0.10044   0.10906
 Alpha virt. eigenvalues --    0.11030   0.11873   0.12321   0.12443   0.12986
 Alpha virt. eigenvalues --    0.13190   0.13484   0.14371   0.14674   0.16017
 Alpha virt. eigenvalues --    0.16235   0.16422   0.17541   0.17898   0.18788
 Alpha virt. eigenvalues --    0.18810   0.19646   0.19790   0.19914   0.22075
 Alpha virt. eigenvalues --    0.22724   0.23628   0.24176   0.24975   0.25624
 Alpha virt. eigenvalues --    0.26800   0.27081   0.28436   0.29432   0.32558
 Alpha virt. eigenvalues --    0.33257   0.33704   0.35225   0.36803   0.37389
 Alpha virt. eigenvalues --    0.37562   0.37729   0.37854   0.39058   0.39498
 Alpha virt. eigenvalues --    0.39530   0.40134   0.40257   0.40567   0.41609
 Alpha virt. eigenvalues --    0.41913   0.41976   0.42177   0.43256   0.43373
 Alpha virt. eigenvalues --    0.43995   0.44576   0.45324   0.46692   0.47808
 Alpha virt. eigenvalues --    0.48274   0.50594   0.51578   0.51925   0.51935
 Alpha virt. eigenvalues --    0.52193   0.57474   0.58293   0.61509   0.63430
 Alpha virt. eigenvalues --    0.63432   0.65119   0.65249   0.68722   0.70511
 Alpha virt. eigenvalues --    0.70680   0.72941   0.75165   0.75624   0.76392
 Alpha virt. eigenvalues --    0.79514   0.79582   0.79988   0.81775   0.82890
 Alpha virt. eigenvalues --    0.83786   0.85845   0.87879   0.89341   0.89556
 Alpha virt. eigenvalues --    0.94241   0.95362   0.96687   0.97167   0.98449
 Alpha virt. eigenvalues --    1.01535   1.04856   1.07137   1.08738   1.11778
 Alpha virt. eigenvalues --    1.15760   1.21032   1.22142   1.23005   1.23391
 Alpha virt. eigenvalues --    1.23714   1.23955   1.25670   1.26661   1.28259
 Alpha virt. eigenvalues --    1.28319   1.29354   1.29886   1.29979   1.30998
 Alpha virt. eigenvalues --    1.33343   1.34698   1.39787   1.40723   1.41917
 Alpha virt. eigenvalues --    1.43936   1.45390   1.45565   1.48941   1.50675
 Alpha virt. eigenvalues --    1.51689   1.55983   1.56432   1.56556   1.58381
 Alpha virt. eigenvalues --    1.58762   1.67696   1.68552   1.72695   1.73637
 Alpha virt. eigenvalues --    1.76179   1.77001   1.77474   1.78830   1.81299
 Alpha virt. eigenvalues --    1.81904   1.87408   1.88244   1.88562   1.92803
 Alpha virt. eigenvalues --    1.93861   1.98137   2.00252   2.05307   2.07190
 Alpha virt. eigenvalues --    2.07970   2.11828   2.16575   2.25414   2.26797
 Alpha virt. eigenvalues --    2.31683   2.36852   2.44181   2.53450   2.62575
 Alpha virt. eigenvalues --    2.78996   2.80617   2.81484   2.81685   2.82185
 Alpha virt. eigenvalues --    2.86238   2.87750   2.88173   2.90660   2.92679
 Alpha virt. eigenvalues --    2.92806   2.92859   2.92920   2.93267   2.93334
 Alpha virt. eigenvalues --    2.94104   2.94749   2.95108   2.96267   2.97390
 Alpha virt. eigenvalues --    2.97616   3.04186   3.07006   3.24054   3.32097
 Alpha virt. eigenvalues --    3.32678   3.34588   3.45472   3.46538   3.46837
 Alpha virt. eigenvalues --    3.47561   3.48595   3.49202   3.50241   3.50503
 Alpha virt. eigenvalues --    3.52161   3.53806   3.55777   3.76295   3.76407
 Alpha virt. eigenvalues --    3.78617   3.79077   3.82339   3.85043   3.85868
 Alpha virt. eigenvalues --    3.87370   3.87688   3.91086   3.91421   3.92741
 Alpha virt. eigenvalues --    3.95090   3.98616   4.03044   4.04120   4.11170
 Alpha virt. eigenvalues --    4.14105   4.25153   4.43072   4.64083   5.13578
 Alpha virt. eigenvalues --    5.13621   5.13878   5.15667   5.16027   5.17893
 Alpha virt. eigenvalues --    5.18297   5.18920   5.25364   5.26603   5.73734
 Alpha virt. eigenvalues --    5.75273   5.75288   5.77153   5.79160   6.94102
 Alpha virt. eigenvalues --    6.97581   7.01405   7.02966   7.13460   7.14891
 Alpha virt. eigenvalues --    7.20483   7.24203   7.24310   7.48252   8.92533
 Alpha virt. eigenvalues --    9.12817   9.20021   9.36941   9.39788   9.57327
 Alpha virt. eigenvalues --   23.99522  24.00610  24.01629  24.02935  24.04665
 Alpha virt. eigenvalues --   30.10920  30.41547  36.45378  36.60226  36.65410
 Alpha virt. eigenvalues --   36.77429  36.80893  36.95555  50.07378  50.13572
 Alpha virt. eigenvalues --   50.13873  50.15553  50.15907 162.49553 162.74838
 Alpha virt. eigenvalues --  845.20560 845.46260
  Beta  occ. eigenvalues -- -299.68333-299.66354 -35.61695 -35.59184 -31.06344
  Beta  occ. eigenvalues --  -31.06028 -31.05542 -31.04043 -31.03821 -31.02699
  Beta  occ. eigenvalues --  -19.06391 -19.06391 -19.06281 -19.03853 -19.03852
  Beta  occ. eigenvalues --  -10.14618 -10.14618 -10.14325 -10.13294 -10.13294
  Beta  occ. eigenvalues --   -3.87860  -3.85633  -2.47659  -2.47120  -2.46043
  Beta  occ. eigenvalues --   -2.45936  -2.45086  -2.43004  -0.99628  -0.99616
  Beta  occ. eigenvalues --   -0.99432  -0.96541  -0.96528  -0.44661  -0.43583
  Beta  occ. eigenvalues --   -0.43018  -0.42267  -0.41690  -0.34713  -0.32782
  Beta  occ. eigenvalues --   -0.32341  -0.31976  -0.31856  -0.31840  -0.31682
  Beta  occ. eigenvalues --   -0.31620  -0.30539  -0.30531  -0.29743  -0.29655
  Beta  occ. eigenvalues --   -0.29646  -0.29534  -0.28921  -0.15782  -0.15013
  Beta  occ. eigenvalues --   -0.14395  -0.13426  -0.12666  -0.12019  -0.11002
  Beta  occ. eigenvalues --   -0.10467  -0.09926  -0.09572
  Beta virt. eigenvalues --    0.04817   0.05814   0.09105   0.09281   0.10182
  Beta virt. eigenvalues --    0.11811   0.12004   0.12035   0.13211   0.13291
  Beta virt. eigenvalues --    0.13501   0.13595   0.14279   0.14821   0.14878
  Beta virt. eigenvalues --    0.16112   0.16440   0.16520   0.17627   0.17890
  Beta virt. eigenvalues --    0.18804   0.18833   0.19713   0.19809   0.20050
  Beta virt. eigenvalues --    0.22097   0.22724   0.23649   0.24240   0.25053
  Beta virt. eigenvalues --    0.25726   0.26836   0.27159   0.28567   0.29747
  Beta virt. eigenvalues --    0.32825   0.33581   0.33758   0.35366   0.36937
  Beta virt. eigenvalues --    0.37420   0.37634   0.37840   0.37921   0.39151
  Beta virt. eigenvalues --    0.39646   0.39710   0.40190   0.40289   0.40685
  Beta virt. eigenvalues --    0.41698   0.41937   0.42008   0.42245   0.43381
  Beta virt. eigenvalues --    0.43535   0.44089   0.44641   0.45348   0.47015
  Beta virt. eigenvalues --    0.48091   0.48616   0.50791   0.52126   0.52325
  Beta virt. eigenvalues --    0.52354   0.52430   0.58301   0.58749   0.62188
  Beta virt. eigenvalues --    0.63814   0.63999   0.65498   0.65507   0.69527
  Beta virt. eigenvalues --    0.70642   0.70868   0.73322   0.75445   0.75802
  Beta virt. eigenvalues --    0.76757   0.79837   0.79993   0.80115   0.81964
  Beta virt. eigenvalues --    0.83000   0.84211   0.86189   0.88154   0.89623
  Beta virt. eigenvalues --    0.89890   0.94369   0.95811   0.96935   0.97301
  Beta virt. eigenvalues --    0.98707   1.01812   1.05082   1.07580   1.09210
  Beta virt. eigenvalues --    1.12058   1.16084   1.21489   1.22570   1.23306
  Beta virt. eigenvalues --    1.23504   1.24059   1.24080   1.25804   1.26767
  Beta virt. eigenvalues --    1.28455   1.28512   1.29553   1.30022   1.30151
  Beta virt. eigenvalues --    1.31254   1.34194   1.35514   1.40331   1.41306
  Beta virt. eigenvalues --    1.42558   1.44391   1.45828   1.45972   1.49450
  Beta virt. eigenvalues --    1.51196   1.52115   1.56332   1.56930   1.57190
  Beta virt. eigenvalues --    1.58894   1.58933   1.67879   1.68984   1.72916
  Beta virt. eigenvalues --    1.74091   1.76518   1.77171   1.78005   1.79074
  Beta virt. eigenvalues --    1.81932   1.82087   1.87573   1.88812   1.88921
  Beta virt. eigenvalues --    1.92929   1.93866   1.98388   2.00182   2.05691
  Beta virt. eigenvalues --    2.07190   2.08309   2.11841   2.16771   2.25645
  Beta virt. eigenvalues --    2.26927   2.31946   2.36984   2.44446   2.53709
  Beta virt. eigenvalues --    2.62750   2.79132   2.81311   2.81588   2.81796
  Beta virt. eigenvalues --    2.82431   2.86664   2.88397   2.88482   2.90824
  Beta virt. eigenvalues --    2.93137   2.93232   2.93243   2.93483   2.93668
  Beta virt. eigenvalues --    2.93838   2.94498   2.95695   2.96379   2.97537
  Beta virt. eigenvalues --    2.97858   2.98767   3.05232   3.07774   3.24235
  Beta virt. eigenvalues --    3.32244   3.32831   3.34761   3.45580   3.46620
  Beta virt. eigenvalues --    3.47136   3.47615   3.49074   3.49552   3.50544
  Beta virt. eigenvalues --    3.50688   3.53161   3.53962   3.56733   3.76087
  Beta virt. eigenvalues --    3.76254   3.78617   3.78867   3.82144   3.84923
  Beta virt. eigenvalues --    3.85644   3.87152   3.87784   3.91304   3.91313
  Beta virt. eigenvalues --    3.92870   3.95493   3.98949   4.03020   4.04048
  Beta virt. eigenvalues --    4.11028   4.14080   4.24967   4.42859   4.63971
  Beta virt. eigenvalues --    5.14034   5.14111   5.14305   5.16292   5.16296
  Beta virt. eigenvalues --    5.18299   5.18573   5.19113   5.27016   5.28238
  Beta virt. eigenvalues --    5.74124   5.75450   5.75594   5.77321   5.79325
  Beta virt. eigenvalues --    6.93821   6.97218   7.00997   7.02626   7.13034
  Beta virt. eigenvalues --    7.14381   7.20031   7.23860   7.23882   7.47767
  Beta virt. eigenvalues --    8.92332   9.12438   9.19619   9.36563   9.39366
  Beta virt. eigenvalues --    9.56914  23.99660  24.00838  24.01762  24.03137
  Beta virt. eigenvalues --   24.04761  30.10466  30.41128  36.45190  36.59821
  Beta virt. eigenvalues --   36.65013  36.77052  36.80496  36.95161  50.07804
  Beta virt. eigenvalues --   50.13759  50.14106  50.15736  50.16200 162.49384
  Beta virt. eigenvalues --  162.74680 845.20541 845.46240
          Condensed to atoms (all electrons):
              1          2          3          4          5          6
     1  Ni  28.162237  -0.041325  -0.575078   0.082147  -0.081176  -0.081176
     2  Ni  -0.041325  27.966149  -0.256618  -0.138112   0.004337   0.004337
     3  C   -0.575078  -0.256618   7.590169  -0.123094  -0.101636  -0.101636
     4  C    0.082147  -0.138112  -0.123094   5.716944   0.083662   0.083662
     5  C   -0.081176   0.004337  -0.101636   0.083662   6.254203   0.100681
     6  C   -0.081176   0.004337  -0.101636   0.083662   0.100681   6.254203
     7  C    0.082147  -0.138112  -0.123094   0.153269   0.083662   0.083662
     8  O   -0.000805  -0.025436   0.002578   0.357761  -0.016248  -0.016248
     9  O    0.015127  -0.020662   0.003215  -0.002679  -0.007314  -0.009313
    10  O    0.015127  -0.020662   0.003215  -0.002679  -0.009313  -0.007314
    11  O   -0.000805  -0.025436   0.002578  -0.017601  -0.016248  -0.016248
    12  O    0.060414   0.020510  -0.095292   0.000565   0.002009   0.002009
              7          8          9         10         11         12
     1  Ni   0.082147  -0.000805   0.015127   0.015127  -0.000805   0.060414
     2  Ni  -0.138112  -0.025436  -0.020662  -0.020662  -0.025436   0.020510
     3  C   -0.123094   0.002578   0.003215   0.003215   0.002578  -0.095292
     4  C    0.153269   0.357761  -0.002679  -0.002679  -0.017601   0.000565
     5  C    0.083662  -0.016248  -0.007314  -0.009313  -0.016248   0.002009
     6  C    0.083662  -0.016248  -0.009313  -0.007314  -0.016248   0.002009
     7  C    5.716944  -0.017601  -0.002679  -0.002679   0.357761   0.000565
     8  O   -0.017601   7.929800   0.001736   0.001736   0.000203   0.001955
     9  O   -0.002679   0.001736   8.142615   0.001775   0.001736  -0.000006
    10  O   -0.002679   0.001736   0.001775   8.142615   0.001736  -0.000006
    11  O    0.357761   0.000203   0.001736   0.001736   7.929800   0.001955
    12  O    0.000565   0.001955  -0.000006  -0.000006   0.001955   8.147316
 Mulliken atomic charges:
              1
     1  Ni   0.363165
     2  Ni   0.671030
     3  C   -0.225306
     4  C   -0.193845
     5  C   -0.296618
     6  C   -0.296618
     7  C   -0.193845
     8  O   -0.219434
     9  O   -0.123551
    10  O   -0.123551
    11  O   -0.219434
    12  O   -0.141994
 Sum of Mulliken atomic charges =  -1.00000
 Mulliken charges with hydrogens summed into heavy atoms:
              1
     1  Ni   0.363165
     2  Ni   0.671030
     3  C   -0.225306
     4  C   -0.193845
     5  C   -0.296618
     6  C   -0.296618
     7  C   -0.193845
     8  O   -0.219434
     9  O   -0.123551
    10  O   -0.123551
    11  O   -0.219434
    12  O   -0.141994
 Sum of Mulliken charges with hydrogens summed into heavy atoms =  -1.00000
          Atomic-Atomic Spin Densities.
              1          2          3          4          5          6
     1  Ni   0.075576  -0.095340   0.018996   0.023346  -0.010796  -0.010796
     2  Ni  -0.095340   0.099998  -0.012731   0.046147   0.052240   0.052240
     3  C    0.018996  -0.012731   0.070777   0.009718  -0.000820  -0.000820
     4  C    0.023346   0.046147   0.009718   0.111829   0.009779   0.009779
     5  C   -0.010796   0.052240  -0.000820   0.009779   0.067870   0.016630
     6  C   -0.010796   0.052240  -0.000820   0.009779   0.016630   0.067870
     7  C    0.023346   0.046147   0.009718   0.001545   0.009779   0.009779
     8  O   -0.017624  -0.021811  -0.001595  -0.080754  -0.003038  -0.003038
     9  O    0.002897  -0.019122   0.000011  -0.000339  -0.038192   0.000097
    10  O    0.002897  -0.019122   0.000011  -0.000339   0.000097  -0.038192
    11  O   -0.017624  -0.021811  -0.001595  -0.001584  -0.003038  -0.003038
    12  O   -0.009977   0.000723  -0.018453   0.000197   0.000015   0.000015
              7          8          9         10         11         12
     1  Ni   0.023346  -0.017624   0.002897   0.002897  -0.017624  -0.009977
     2  Ni   0.046147  -0.021811  -0.019122  -0.019122  -0.021811   0.000723
     3  C    0.009718  -0.001595   0.000011   0.000011  -0.001595  -0.018453
     4  C    0.001545  -0.080754  -0.000339  -0.000339  -0.001584   0.000197
     5  C    0.009779  -0.003038  -0.038192   0.000097  -0.003038   0.000015
     6  C    0.009779  -0.003038   0.000097  -0.038192  -0.003038   0.000015
     7  C    0.111829  -0.001584  -0.000339  -0.000339  -0.080754   0.000197
     8  O   -0.001584   0.242460   0.001014   0.001014  -0.000068   0.000694
     9  O   -0.000339   0.001014   0.107708  -0.000013   0.001014  -0.000002
    10  O   -0.000339   0.001014  -0.000013   0.107708   0.001014  -0.000002
    11  O   -0.080754  -0.000068   0.001014   0.001014   0.242460   0.000694
    12  O    0.000197   0.000694  -0.000002  -0.000002   0.000694   0.059711
 Mulliken atomic spin densities:
              1
     1  Ni  -0.015098
     2  Ni   0.107556
     3  C    0.073218
     4  C    0.129326
     5  C    0.100526
     6  C    0.100526
     7  C    0.129326
     8  O    0.115670
     9  O    0.054736
    10  O    0.054736
    11  O    0.115670
    12  O    0.033811
 Sum of Mulliken atomic spin densities =   1.00000
 Electronic spatial extent (au):  <R**2>=           2787.1279
 Charge=             -1.0000 electrons
 Dipole moment (field-independent basis, Debye):
    X=              0.0000    Y=              0.0000    Z=             -0.0124  Tot=              0.0124
 Quadrupole moment (field-independent basis, Debye-Ang):
   XX=            -94.9338   YY=           -102.2930   ZZ=           -115.4413
   XY=              0.0000   XZ=              0.0000   YZ=              0.0000
 Traceless Quadrupole moment (field-independent basis, Debye-Ang):
   XX=              9.2889   YY=              1.9297   ZZ=            -11.2186
   XY=              0.0000   XZ=              0.0000   YZ=              0.0000
 Octapole moment (field-independent basis, Debye-Ang**2):
  XXX=              0.0000  YYY=              0.0000  ZZZ=            -43.2297  XYY=              0.0000
  XXY=              0.0000  XXZ=             38.5786  XZZ=              0.0000  YZZ=              0.0000
  YYZ=             -1.0801  XYZ=              0.0000
 Hexadecapole moment (field-independent basis, Debye-Ang**3):
 XXXX=           -754.8062 YYYY=           -935.4725 ZZZZ=          -2449.1174 XXXY=              0.0000
 XXXZ=              0.0000 YYYX=              0.0000 YYYZ=              0.0000 ZZZX=              0.0000
 ZZZY=              0.0000 XXYY=           -231.7151 XXZZ=           -538.6923 YYZZ=           -456.9114
 XXYZ=              0.0000 YYXZ=              0.0000 ZZXY=              0.0000
 N-N= 1.275521438913D+03 E-N=-1.665236326104D+04  KE= 5.369151255681D+03
 Symmetry A1   KE= 3.864215746761D+03
 Symmetry A2   KE= 5.869839964137D+01
 Symmetry B1   KE= 7.218362535298D+02
 Symmetry B2   KE= 7.244008557488D+02
                          Isotropic Fermi Contact Couplings
        Atom                 a.u.       MegaHertz       Gauss      10(-4) cm-1
     1  Ni(61)             0.04964     -19.86353      -7.08780      -6.62576
     2  Ni(61)             0.06369     -25.48538      -9.09382      -8.50101
     3  C(13)             -0.00910     -10.22696      -3.64923      -3.41135
     4  C(13)             -0.01182     -13.28918      -4.74191      -4.43279
     5  C(13)             -0.00957     -10.75946      -3.83924      -3.58897
     6  C(13)             -0.00957     -10.75946      -3.83924      -3.58897
     7  C(13)             -0.01182     -13.28918      -4.74191      -4.43279
     8  O(17)              0.01432      -8.67942      -3.09703      -2.89514
     9  O(17)              0.00448      -2.71592      -0.96911      -0.90593
    10  O(17)              0.00448      -2.71592      -0.96911      -0.90593
    11  O(17)              0.01432      -8.67942      -3.09703      -2.89514
    12  O(17)              0.00100      -0.60450      -0.21570      -0.20164
 --------------------------------------------------------
       Center         ----  Spin Dipole Couplings  ----
                      3XX-RR        3YY-RR        3ZZ-RR
 --------------------------------------------------------
     1   Atom        0.107240      0.296148     -0.403388
     2   Atom       -0.339712      0.668917     -0.329205
     3   Atom       -0.026902      0.061401     -0.034498
     4   Atom       -0.110972     -0.105602      0.216574
     5   Atom       -0.057371      0.114948     -0.057577
     6   Atom       -0.057371      0.114948     -0.057577
     7   Atom       -0.110972     -0.105602      0.216574
     8   Atom       -0.302381     -0.338746      0.641127
     9   Atom       -0.138151      0.268547     -0.130396
    10   Atom       -0.138151      0.268547     -0.130396
    11   Atom       -0.302381     -0.338746      0.641127
    12   Atom       -0.057949      0.148110     -0.090161
 --------------------------------------------------------
                        XY            XZ            YZ
 --------------------------------------------------------
     1   Atom        0.000000      0.000000      0.000000
     2   Atom        0.000000      0.000000      0.000000
     3   Atom        0.000000      0.000000      0.000000
     4   Atom        0.000000      0.000000      0.003611
     5   Atom        0.000000     -0.002842      0.000000
     6   Atom        0.000000      0.002842      0.000000
     7   Atom        0.000000      0.000000     -0.003611
     8   Atom        0.000000      0.000000      0.079962
     9   Atom        0.000000     -0.014116      0.000000
    10   Atom        0.000000      0.014116      0.000000
    11   Atom        0.000000      0.000000     -0.079962
    12   Atom        0.000000      0.000000      0.000000
 --------------------------------------------------------


 ---------------------------------------------------------------------------------
              Anisotropic Spin Dipole Couplings in Principal Axis System
 ---------------------------------------------------------------------------------

       Atom             a.u.   MegaHertz   Gauss  10(-4) cm-1        Axes

              Baa    -0.4034    19.267     6.875     6.427  0.0000  0.0000  1.0000
     1 Ni(61) Bbb     0.1072    -5.122    -1.828    -1.709  1.0000  0.0000  0.0000
              Bcc     0.2961   -14.145    -5.047    -4.718  0.0000  1.0000  0.0000
 
              Baa    -0.3397    16.225     5.790     5.412  1.0000  0.0000  0.0000
     2 Ni(61) Bbb    -0.3292    15.723     5.611     5.245  0.0000  0.0000  1.0000
              Bcc     0.6689   -31.949   -11.400   -10.657  0.0000  1.0000  0.0000
 
              Baa    -0.0345    -4.629    -1.652    -1.544  0.0000  0.0000  1.0000
     3 C(13)  Bbb    -0.0269    -3.610    -1.288    -1.204  1.0000  0.0000  0.0000
              Bcc     0.0614     8.239     2.940     2.748  0.0000  1.0000  0.0000
 
              Baa    -0.1110   -14.891    -5.314    -4.967  1.0000  0.0000  0.0000
     4 C(13)  Bbb    -0.1056   -14.176    -5.058    -4.729  0.0000  0.9999 -0.0112
              Bcc     0.2166    29.068    10.372     9.696  0.0000  0.0112  0.9999
 
              Baa    -0.0603    -8.094    -2.888    -2.700  0.6942  0.0000  0.7198
     5 C(13)  Bbb    -0.0546    -7.331    -2.616    -2.445  0.7198  0.0000 -0.6942
              Bcc     0.1149    15.425     5.504     5.145  0.0000  1.0000  0.0000
 
              Baa    -0.0603    -8.094    -2.888    -2.700 -0.6942  0.0000  0.7198
     6 C(13)  Bbb    -0.0546    -7.331    -2.616    -2.445  0.7198  0.0000  0.6942
              Bcc     0.1149    15.425     5.504     5.145  0.0000  1.0000  0.0000
 
              Baa    -0.1110   -14.891    -5.314    -4.967  1.0000  0.0000  0.0000
     7 C(13)  Bbb    -0.1056   -14.176    -5.058    -4.729  0.0000  0.9999  0.0112
              Bcc     0.2166    29.068    10.372     9.696  0.0000 -0.0112  0.9999
 
              Baa    -0.3452    24.980     8.914     8.333  0.0000  0.9967 -0.0808
     8 O(17)  Bbb    -0.3024    21.880     7.807     7.298  1.0000  0.0000  0.0000
              Bcc     0.6476   -46.861   -16.721   -15.631  0.0000  0.0808  0.9967
 
              Baa    -0.1489    10.775     3.845     3.594  0.7953  0.0000  0.6063
     9 O(17)  Bbb    -0.1196     8.657     3.089     2.888 -0.6063  0.0000  0.7953
              Bcc     0.2685   -19.432    -6.934    -6.482  0.0000  1.0000  0.0000
 
              Baa    -0.1489    10.775     3.845     3.594  0.7953  0.0000 -0.6063
    10 O(17)  Bbb    -0.1196     8.657     3.089     2.888  0.6063  0.0000  0.7953
              Bcc     0.2685   -19.432    -6.934    -6.482  0.0000  1.0000  0.0000
 
              Baa    -0.3452    24.980     8.914     8.333  0.0000  0.9967  0.0808
    11 O(17)  Bbb    -0.3024    21.880     7.807     7.298  1.0000  0.0000  0.0000
              Bcc     0.6476   -46.861   -16.721   -15.631  0.0000 -0.0808  0.9967
 
              Baa    -0.0902     6.524     2.328     2.176  0.0000  0.0000  1.0000
    12 O(17)  Bbb    -0.0579     4.193     1.496     1.399  1.0000  0.0000  0.0000
              Bcc     0.1481   -10.717    -3.824    -3.575  0.0000  1.0000  0.0000
 

 ---------------------------------------------------------------------------------

 Calling FoFJK, ICntrl=      2127 FMM=F ISym2X=0 I1Cent= 0 IOpClX= 1 NMat=1 NMatS=1 NMatT=0.
 ***** Axes restored to original set *****
 -------------------------------------------------------------------
 Center     Atomic                   Forces (Hartrees/Bohr)
 Number     Number              X              Y              Z
 -------------------------------------------------------------------
      1       28           0.000000000    0.000000000    0.000002843
      2       28           0.000000000    0.000000000    0.000000345
      3        6           0.000000000    0.000000000   -0.000001255
      4        6           0.000000000   -0.000000609   -0.000002604
      5        6           0.000000264    0.000000000    0.000000491
      6        6          -0.000000264    0.000000000    0.000000491
      7        6           0.000000000    0.000000609   -0.000002604
      8        8           0.000000000   -0.000000322    0.000000821
      9        8          -0.000000156    0.000000000   -0.000000250
     10        8           0.000000156    0.000000000   -0.000000250
     11        8           0.000000000    0.000000322    0.000000821
     12        8           0.000000000    0.000000000    0.000001152
 -------------------------------------------------------------------
 Cartesian Forces:  Max     0.000002843 RMS     0.000000878

 GradGradGradGradGradGradGradGradGradGradGradGradGradGradGradGradGradGrad
 Berny optimization.
 Search for a local minimum.
 Step number   1 out of a maximum of   46
 All quantities printed in internal units (Hartrees-Bohrs-Radians)
 Second derivative matrix not updated -- first step.
     Eigenvalues ---    0.00941   0.01963   0.02264   0.02350   0.03202
     Eigenvalues ---    0.04655   0.05908   0.08525   0.09447   0.13601
     Eigenvalues ---    0.19137   0.20167   0.20465   0.25999   0.32679
     Eigenvalues ---    0.32766   0.45098   0.58015   0.59737   0.63764
     Eigenvalues ---    0.72587   0.80028   0.83676   2.57552   2.58142
     Eigenvalues ---    2.73073   2.74120   2.74490 134.63744 162.56249
 RFO step:  Lambda= 0.00000000D+00 EMin= 9.41193095D-03
 ClnCor:  largest displacement from symmetrization is 4.49D-12 for atom     7.
 Linear search not attempted -- first point.
 ClnCor:  largest displacement from symmetrization is 2.13D-28 for atom    12.
 TrRot=  0.000000  0.000000  0.000000  0.000000  0.000000  0.000000
 Variable       Old X    -DE/DX   Delta X   Delta X   Delta X     New X
                                 (Linear)    (Quad)   (Total)
    X1        0.00000   0.00000   0.00000   0.00000   0.00000   0.00000
    Y1        0.00000   0.00000   0.00000   0.00000   0.00000   0.00000
    Z1        2.51695   0.00000   0.00000   0.00000   0.00000   2.51695
    X2        0.00000   0.00000   0.00000   0.00000   0.00000   0.00000
    Y2        0.00000   0.00000   0.00000   0.00000   0.00000   0.00000
    Z2       -1.98340   0.00000   0.00000   0.00000   0.00000  -1.98340
    X3        0.00000   0.00000   0.00000   0.00000   0.00000   0.00000
    Y3        0.00000   0.00000   0.00000   0.00000   0.00000   0.00000
    Z3        5.80499   0.00000   0.00000   0.00000   0.00000   5.80499
    X4        0.00000   0.00000   0.00000   0.00000   0.00000   0.00000
    Y4        2.96793   0.00000   0.00000   0.00000   0.00000   2.96793
    Z4        0.48048   0.00000   0.00000  -0.00001  -0.00001   0.48048
    X5       -2.88405   0.00000   0.00000   0.00000   0.00000  -2.88404
    Y5        0.00000   0.00000   0.00000   0.00000   0.00000   0.00000
    Z5       -3.74877   0.00000   0.00000   0.00000   0.00000  -3.74877
    X6        2.88405   0.00000   0.00000   0.00000   0.00000   2.88404
    Y6        0.00000   0.00000   0.00000   0.00000   0.00000   0.00000
    Z6       -3.74877   0.00000   0.00000   0.00000   0.00000  -3.74877
    X7        0.00000   0.00000   0.00000   0.00000   0.00000   0.00000
    Y7       -2.96793   0.00000   0.00000   0.00000   0.00000  -2.96793
    Z7        0.48048   0.00000   0.00000  -0.00001  -0.00001   0.48048
    X8        0.00000   0.00000   0.00000   0.00000   0.00000   0.00000
    Y8        5.17155   0.00000   0.00000   0.00000   0.00000   5.17155
    Z8        0.29666   0.00000   0.00000   0.00000   0.00000   0.29666
    X9       -4.70753   0.00000   0.00000   0.00000   0.00000  -4.70753
    Y9        0.00000   0.00000   0.00000   0.00000   0.00000   0.00000
    Z9       -4.95392   0.00000   0.00000   0.00000   0.00000  -4.95392
   X10        4.70753   0.00000   0.00000   0.00000   0.00000   4.70753
   Y10        0.00000   0.00000   0.00000   0.00000   0.00000   0.00000
   Z10       -4.95392   0.00000   0.00000   0.00000   0.00000  -4.95392
   X11        0.00000   0.00000   0.00000   0.00000   0.00000   0.00000
   Y11       -5.17155   0.00000   0.00000   0.00000   0.00000  -5.17155
   Z11        0.29666   0.00000   0.00000   0.00000   0.00000   0.29666
   X12        0.00000   0.00000   0.00000   0.00000   0.00000   0.00000
   Y12        0.00000   0.00000   0.00000   0.00000   0.00000   0.00000
   Z12        7.99580   0.00000   0.00000   0.00000   0.00000   7.99581
         Item               Value     Threshold  Converged?
 Maximum Force            0.000003     0.000015     YES
 RMS     Force            0.000001     0.000010     YES
 Maximum Displacement     0.000005     0.000060     YES
 RMS     Displacement     0.000002     0.000040     YES
 Predicted change in Energy=-2.241302D-11
 Optimization completed.
    -- Stationary point found.
 GradGradGradGradGradGradGradGradGradGradGradGradGradGradGradGradGradGrad

                          Input orientation:                          
 ---------------------------------------------------------------------
 Center     Atomic      Atomic             Coordinates (Angstroms)
 Number     Number       Type             X           Y           Z
 ---------------------------------------------------------------------
      1         28           0        0.000000    0.000000    1.331911
      2         28           0        0.000000    0.000000   -1.049571
      3          6           0        0.000000    0.000000    3.071868
      4          6           0        0.000000    1.570561    0.254260
      5          6           0       -1.526171    0.000000   -1.983766
      6          6           0        1.526171    0.000000   -1.983766
      7          6           0        0.000000   -1.570561    0.254260
      8          8           0        0.000000    2.736669    0.156985
      9          8           0       -2.491116    0.000000   -2.621500
     10          8           0        2.491116    0.000000   -2.621500
     11          8           0        0.000000   -2.736669    0.156985
     12          8           0        0.000000    0.000000    4.231196
 ---------------------------------------------------------------------
                    Distance matrix (angstroms):
                    1          2          3          4          5
     1  Ni   0.000000
     2  Ni   2.381482   0.000000
     3  C    1.739957   4.121439   0.000000
     4  C    1.904729   2.041234   3.225768   0.000000
     5  C    3.650056   1.789390   5.280969   3.131233   0.000000
     6  C    3.650056   1.789390   5.280969   3.131233   3.052342
     7  C    1.904729   2.041234   3.225768   3.141122   3.131233
     8  O    2.978222   2.990842   3.998237   1.170158   3.794914
     9  O    4.672806   2.945610   6.214507   4.116105   1.156643
    10  O    4.672806   2.945610   6.214507   4.116105   4.067591
    11  O    2.978222   2.990842   3.998237   4.308328   3.794914
    12  O    2.899285   5.280767   1.159328   4.275825   6.399606
                    6          7          8          9         10
     6  C    0.000000
     7  C    3.131233   0.000000
     8  O    3.794914   4.308328   0.000000
     9  O    4.067591   4.116105   4.627634   0.000000
    10  O    1.156643   4.116105   4.627634   4.982232   0.000000
    11  O    3.794914   1.170158   5.473338   4.627634   4.627634
    12  O    6.399606   4.275825   4.908009   7.291440   7.291440
                   11         12
    11  O    0.000000
    12  O    4.908009   0.000000
 Stoichiometry    C5Ni2O5(1-,2)
 Framework group  C2V[C2(NiNiCO),SGV(C2O2),SGV'(C2O2)]
 Deg. of freedom    11
 Full point group                 C2V     NOp   4
 Largest Abelian subgroup         C2V     NOp   4
 Largest concise Abelian subgroup C2V     NOp   4
                         Standard orientation:                         
 ---------------------------------------------------------------------
 Center     Atomic      Atomic             Coordinates (Angstroms)
 Number     Number       Type             X           Y           Z
 ---------------------------------------------------------------------
      1         28           0        0.000000    0.000000    1.331911
      2         28           0        0.000000    0.000000   -1.049571
      3          6           0        0.000000    0.000000    3.071868
      4          6           0        0.000000    1.570561    0.254260
      5          6           0       -1.526171    0.000000   -1.983766
      6          6           0        1.526171    0.000000   -1.983766
      7          6           0        0.000000   -1.570561    0.254260
      8          8           0        0.000000    2.736669    0.156985
      9          8           0       -2.491116    0.000000   -2.621500
     10          8           0        2.491116    0.000000   -2.621500
     11          8           0        0.000000   -2.736669    0.156985
     12          8           0        0.000000    0.000000    4.231196
 ---------------------------------------------------------------------
 Rotational constants (GHZ):      0.9135526      0.4443909      0.4277059

 Test job not archived.
 1|1|UNPC-123-PC|FOpt|UB3LYP|6-311+G(d)|C5Ni2O5(1-,2)|123|19-Oct-2016|0
 ||# opt=(tight,cartesian) freq ub3lyp/6-311+g(d) int=ultrafine iop(1/8
 =10) scf=(maxcyc=80,xqc) symm=on||from Ni2CO5-_221_A_2th_2||-1,2|Ni,0.
 ,0.,1.331911|Ni,0.,0.,-1.049571|C,0.,0.,3.071868|C,0.,1.570561,0.25426
 |C,-1.526171,0.,-1.983766|C,1.526171,0.,-1.983766|C,0.,-1.570561,0.254
 26|O,0.,2.736669,0.156985|O,-2.491116,0.,-2.6215|O,2.491116,0.,-2.6215
 |O,0.,-2.736669,0.156985|O,0.,0.,4.231196||Version=IA32W-G09RevA.02|St
 ate=2-B2|HF=-3583.6155353|S2=0.772441|S2-1=0.|S2A=0.750389|RMSD=4.158e
 -009|RMSF=8.781e-007|Dipole=0.,0.,-0.0048701|Quadrupole=6.9060785,1.43
 46804,-8.340759,0.,0.,0.|PG=C02V [C2(Ni1Ni1C1O1),SGV(C2O2),SGV'(C2O2)]
 ||@


 "WOULD YOU TELL ME PLEASE, WHICH WAY I OUGHT TO WALK FROM HERE?"
 "THAT DEPENDS A GREAT DEAL ON WHERE YOU WANT TO GO," SAID THE CAT.
 "I DON'T MUCH CARE WHERE -- ", SAID ALICE.
 "THEN IT DOESN'T MATTER WHICH WAY YOU WALK," SAID THE CAT.

                                      -- LEWIS CARROLL
 Job cpu time:  0 days  0 hours 16 minutes 17.0 seconds.
 File lengths (MBytes):  RWF=    110 Int=      0 D2E=      0 Chk=      8 Scr=      1
 Normal termination of Gaussian 09 at Wed Oct 19 19:38:53 2016.
 Link1:  Proceeding to internal job step number  2.
 ----------------------------------------------------------------------
 #N Geom=AllCheck Guess=TCheck SCRF=Check Test GenChk UB3LYP/6-311+G(d)
  Freq
 ----------------------------------------------------------------------
 1/7=10,10=4,29=7,30=1,38=1,40=1/1,3;
 2/12=2,15=-1,40=1/2;
 3/5=4,6=6,7=11,11=2,14=-4,16=1,25=1,30=1,70=2,71=2,74=-5,75=-5,116=2/1,2,3;
 4/5=101/1;
 5/5=2,7=80,8=3,13=1,98=1/2,8;
 8/6=4,10=90,11=11/1;
 11/6=1,8=1,9=11,15=111,16=1,31=1/1,2,10;
 10/6=1,31=1/2;
 6/7=2,8=2,9=2,10=2,18=1,28=1/1;
 7/8=1,10=1,25=1,30=1/1,2,3,16;
 1/7=10,10=4,30=1/3;
 99//99;
 ------------------------
 from Ni2CO5-_221_A_2th_2
 ------------------------
 No Z-matrix found on checkpoint file.
 Cartesian coordinates read from the checkpoint file:
 D:\Gaussian Result\CrFeCO-\CrFeCO- OK_meng\Ni2CO5-_221_A_2th_2_C2v_1_big_chk.chk
 Charge = -1 Multiplicity = 2
  Ni                                                0.000000000000      0.000000000000      1.331911000000
  Ni                                                0.000000000000      0.000000000000     -1.049571000000
  C                                                 0.000000000000      0.000000000000      3.071868000000
  C                                                 0.000000000000      1.570561000000      0.254260000000
  C                                                -1.526171000000      0.000000000000     -1.983766000000
  C                                                 1.526171000000      0.000000000000     -1.983766000000
  C                                                 0.000000000000     -1.570561000000      0.254260000000
  O                                                 0.000000000000      2.736669000000      0.156985000000
  O                                                -2.491116000000      0.000000000000     -2.621500000000
  O                                                 2.491116000000      0.000000000000     -2.621500000000
  O                                                 0.000000000000     -2.736669000000      0.156985000000
  O                                                 0.000000000000      0.000000000000      4.231196000000
 Recover connectivity data from disk.

 GradGradGradGradGradGradGradGradGradGradGradGradGradGradGradGradGradGrad
 Berny optimization.
 Initialization pass.
 Trust Radius=3.00D-01 FncErr=1.00D-07 GrdErr=1.00D-07
 Number of steps in this run=   2 maximum allowed number of steps=   2.
 GradGradGradGradGradGradGradGradGradGradGradGradGradGradGradGradGradGrad

                          Input orientation:                          
 ---------------------------------------------------------------------
 Center     Atomic      Atomic             Coordinates (Angstroms)
 Number     Number       Type             X           Y           Z
 ---------------------------------------------------------------------
      1         28           0        0.000000    0.000000    1.331911
      2         28           0        0.000000    0.000000   -1.049571
      3          6           0        0.000000    0.000000    3.071868
      4          6           0        0.000000    1.570561    0.254260
      5          6           0       -1.526171    0.000000   -1.983766
      6          6           0        1.526171    0.000000   -1.983766
      7          6           0        0.000000   -1.570561    0.254260
      8          8           0        0.000000    2.736669    0.156985
      9          8           0       -2.491116    0.000000   -2.621500
     10          8           0        2.491116    0.000000   -2.621500
     11          8           0        0.000000   -2.736669    0.156985
     12          8           0        0.000000    0.000000    4.231196
 ---------------------------------------------------------------------
                    Distance matrix (angstroms):
                    1          2          3          4          5
     1  Ni   0.000000
     2  Ni   2.381482   0.000000
     3  C    1.739957   4.121439   0.000000
     4  C    1.904729   2.041234   3.225768   0.000000
     5  C    3.650056   1.789390   5.280969   3.131233   0.000000
     6  C    3.650056   1.789390   5.280969   3.131233   3.052342
     7  C    1.904729   2.041234   3.225768   3.141122   3.131233
     8  O    2.978222   2.990842   3.998237   1.170158   3.794914
     9  O    4.672806   2.945610   6.214507   4.116105   1.156643
    10  O    4.672806   2.945610   6.214507   4.116105   4.067591
    11  O    2.978222   2.990842   3.998237   4.308328   3.794914
    12  O    2.899285   5.280767   1.159328   4.275825   6.399606
                    6          7          8          9         10
     6  C    0.000000
     7  C    3.131233   0.000000
     8  O    3.794914   4.308328   0.000000
     9  O    4.067591   4.116105   4.627634   0.000000
    10  O    1.156643   4.116105   4.627634   4.982232   0.000000
    11  O    3.794914   1.170158   5.473338   4.627634   4.627634
    12  O    6.399606   4.275825   4.908009   7.291440   7.291440
                   11         12
    11  O    0.000000
    12  O    4.908009   0.000000
 Stoichiometry    C5Ni2O5(1-,2)
 Framework group  C2V[C2(NiNiCO),SGV(C2O2),SGV'(C2O2)]
 Deg. of freedom    11
 Full point group                 C2V     NOp   4
 Largest Abelian subgroup         C2V     NOp   4
 Largest concise Abelian subgroup C2V     NOp   4
                         Standard orientation:                         
 ---------------------------------------------------------------------
 Center     Atomic      Atomic             Coordinates (Angstroms)
 Number     Number       Type             X           Y           Z
 ---------------------------------------------------------------------
      1         28           0        0.000000    0.000000    1.331911
      2         28           0        0.000000    0.000000   -1.049571
      3          6           0        0.000000    0.000000    3.071868
      4          6           0        0.000000    1.570561    0.254260
      5          6           0       -1.526171    0.000000   -1.983766
      6          6           0        1.526171    0.000000   -1.983766
      7          6           0        0.000000   -1.570561    0.254260
      8          8           0        0.000000    2.736669    0.156985
      9          8           0       -2.491116    0.000000   -2.621500
     10          8           0        2.491116    0.000000   -2.621500
     11          8           0        0.000000   -2.736669    0.156985
     12          8           0        0.000000    0.000000    4.231196
 ---------------------------------------------------------------------
 Rotational constants (GHZ):      0.9135526      0.4443909      0.4277059
 Standard basis: 6-311+G(d) (5D, 7F)
 There are   140 symmetry adapted basis functions of A1  symmetry.
 There are    36 symmetry adapted basis functions of A2  symmetry.
 There are    80 symmetry adapted basis functions of B1  symmetry.
 There are    80 symmetry adapted basis functions of B2  symmetry.
 Integral buffers will be    262144 words long.
 Raffenetti 2 integral format.
 Two-electron integral symmetry is turned on.
   336 basis functions,   548 primitive gaussians,   360 cartesian basis functions
    64 alpha electrons       63 beta electrons
       nuclear repulsion energy      1275.5214389129 Hartrees.
 NAtoms=   12 NActive=   12 NUniq=    8 SFac= 1.69D+00 NAtFMM=   80 NAOKFM=F Big=F
 One-electron integrals computed using PRISM.
 NBasis=   336 RedAO= T  NBF=   140    36    80    80
 NBsUse=   336 1.00D-06 NBFU=   140    36    80    80
 Initial guess read from the checkpoint file:  D:\Gaussian Result\CrFeCO-\CrFeCO-
  OK_meng\Ni2CO5-_221_A_2th_2_C2v_1_big_chk.chk
 B after Tr=     0.000000    0.000000    0.000000
         Rot=    1.000000    0.000000    0.000000    0.000000 Ang=   0.00 deg.
 Initial guess orbital symmetries:
 Alpha Orbitals:
       Occupied  (A1) (A1) (A1) (A1) (B1) (A1) (B2) (A1) (B2) (B1)
                 (B1) (A1) (A1) (A1) (B2) (A1) (B1) (A1) (A1) (B2)
                 (A1) (A1) (B1) (A1) (A1) (B2) (B2) (B1) (A1) (B1)
                 (A1) (A1) (B2) (A1) (A1) (B1) (A1) (B2) (A1) (A1)
                 (B2) (A2) (A1) (B2) (B1) (B1) (A1) (B2) (B2) (B1)
                 (A2) (A1) (B1) (A1) (A2) (B1) (A1) (B2) (A2) (A1)
                 (A1) (B2) (B1) (B2)
       Virtual   (B1) (A1) (A1) (A1) (B2) (A2) (B1) (A1) (A2) (B1)
                 (B2) (B1) (B2) (A1) (A1) (B2) (B1) (A1) (A1) (A1)
                 (B1) (A2) (B2) (A1) (A2) (B1) (A1) (B2) (B2) (B1)
                 (B1) (A1) (A1) (B2) (A1) (B2) (B1) (A1) (A1) (B1)
                 (A2) (B2) (A1) (B1) (A1) (B2) (A1) (B1) (A1) (A2)
                 (B1) (A1) (B2) (B2) (A1) (A1) (B1) (B1) (A1) (B2)
                 (A1) (A1) (B2) (B1) (A2) (A1) (B2) (A1) (A2) (A1)
                 (B2) (A1) (B1) (B2) (B1) (A1) (A2) (A1) (B1) (B2)
                 (B2) (A2) (B1) (A1) (B1) (B2) (A1) (A1) (B2) (B1)
                 (A1) (B2) (A1) (A1) (B1) (A1) (A1) (B1) (B2) (A1)
                 (A1) (A1) (B2) (A2) (B1) (A2) (B1) (B1) (A1) (B2)
                 (A1) (A1) (A1) (B1) (B2) (B2) (A1) (A2) (A2) (B2)
                 (A1) (B1) (A2) (B1) (B2) (A2) (B1) (A1) (B2) (A1)
                 (B1) (B1) (A1) (A1) (B2) (B2) (A1) (A2) (B1) (B2)
                 (A1) (A1) (B2) (A2) (A1) (B1) (A2) (B1) (A1) (B1)
                 (A1) (A1) (B2) (B2) (A1) (B2) (B1) (A1) (B2) (A1)
                 (B1) (A2) (B1) (A1) (A2) (B2) (B2) (B1) (A1) (A2)
                 (A2) (A1) (B1) (B2) (A1) (A1) (B1) (A2) (B2) (B1)
                 (A1) (B2) (A1) (A1) (B1) (A1) (B2) (A1) (B1) (A2)
                 (B1) (B2) (A2) (B2) (B1) (A1) (A1) (B2) (B1) (A2)
                 (A1) (B2) (A2) (B2) (B1) (B1) (A1) (B1) (B2) (A1)
                 (B2) (A1) (A1) (B2) (B1) (A1) (A1) (A1) (A1) (B2)
                 (A2) (B1) (A2) (B1) (B2) (B1) (A1) (B2) (A1) (B2)
                 (B1) (A1) (A1) (A1) (A2) (A1) (A2) (B1) (A1) (B2)
                 (A1) (B2) (B1) (A1) (B1) (B2) (B2) (B1) (A1) (A1)
                 (A1) (B2) (B1) (A1) (A1) (A1) (A1) (B1) (B2) (B2)
                 (B1) (A1) (A1) (B2) (A1) (A1) (B1) (A1) (A1) (A1)
                 (A1) (A1)
 Beta  Orbitals:
       Occupied  (A1) (A1) (A1) (A1) (B1) (A1) (B2) (A1) (B2) (B1)
                 (B1) (A1) (A1) (A1) (B2) (B1) (A1) (A1) (A1) (B2)
                 (A1) (A1) (B1) (A1) (A1) (B2) (B2) (B1) (A1) (B1)
                 (A1) (A1) (B2) (A1) (A1) (B1) (A1) (B2) (A1) (A1)
                 (A1) (B1) (B1) (B2) (A2) (B2) (B1) (B2) (A1) (B1)
                 (A2) (A1) (B2) (A1) (A2) (B1) (B2) (A1) (A2) (A1)
                 (A1) (B1) (B2)
       Virtual   (B2) (B1) (A1) (A1) (A1) (B2) (A2) (B1) (B1) (A2)
                 (B1) (A1) (B2) (A1) (B2) (A1) (B1) (B2) (A1) (A1)
                 (B1) (A1) (A2) (B2) (A1) (A2) (B1) (A1) (B2) (B2)
                 (B1) (B1) (A1) (A1) (B2) (A1) (B2) (B1) (A1) (A1)
                 (B1) (A2) (B2) (A1) (B1) (B2) (A1) (A1) (B1) (A1)
                 (A2) (B1) (A1) (B2) (B2) (A1) (A1) (B1) (B1) (A1)
                 (B2) (A1) (A1) (B1) (B2) (A1) (A2) (B2) (A1) (A2)
                 (A1) (B2) (A1) (B1) (B2) (B1) (A1) (A2) (A1) (B1)
                 (B2) (A2) (B2) (B1) (A1) (B1) (B2) (A1) (A1) (B2)
                 (B1) (A1) (B2) (A1) (A1) (B1) (A1) (A1) (B1) (B2)
                 (A1) (A1) (A1) (B2) (A2) (B1) (A2) (B1) (B1) (A1)
                 (A1) (B2) (A1) (A1) (B1) (B2) (B2) (A1) (A2) (A2)
                 (B2) (A1) (B1) (A2) (B1) (B2) (A2) (B1) (A1) (B2)
                 (B1) (A1) (B1) (A1) (A1) (B2) (B2) (A1) (A2) (B1)
                 (B2) (A1) (A1) (A2) (B2) (A1) (B1) (A2) (B1) (A1)
                 (B1) (A1) (A1) (B2) (B2) (A1) (B2) (B1) (A1) (B2)
                 (A1) (B1) (A2) (B1) (A1) (A2) (B2) (B1) (B2) (A1)
                 (A2) (A1) (A2) (B1) (A1) (B2) (A1) (B1) (A2) (B2)
                 (B1) (A1) (B2) (A1) (A1) (B1) (A1) (B2) (A1) (B1)
                 (A2) (B1) (B2) (A2) (B2) (B1) (A1) (A1) (B2) (B1)
                 (A2) (A1) (B2) (A2) (B2) (B1) (B1) (A1) (B1) (B2)
                 (A1) (B2) (A1) (A1) (B2) (B1) (A1) (A1) (A1) (A1)
                 (B1) (A2) (B2) (A2) (B1) (B2) (B1) (A1) (B2) (A1)
                 (B2) (B1) (A1) (A1) (A1) (A2) (A1) (A2) (B1) (A1)
                 (B2) (A1) (B2) (B1) (A1) (B1) (B2) (B2) (B1) (A1)
                 (A1) (A1) (B2) (B1) (A1) (A1) (A1) (A1) (B1) (B2)
                 (B2) (B1) (A1) (A1) (B2) (A1) (A1) (B1) (A1) (A1)
                 (A1) (A1) (A1)
 Initial guess <Sx>= 0.0000 <Sy>= 0.0000 <Sz>= 0.5000 <S**2>= 0.7724 S= 0.5112
 Requested convergence on RMS density matrix=1.00D-08 within  80 cycles.
 Requested convergence on MAX density matrix=1.00D-06.
 Requested convergence on             energy=1.00D-06.
 No special actions if energy rises.
 SCF Done:  E(UB3LYP) =  -3583.61553533     A.U. after    1 cycles
             Convg  =    0.1598D-08             -V/T =  2.0012
 <Sx>= 0.0000 <Sy>= 0.0000 <Sz>= 0.5000 <S**2>= 0.7724 S= 0.5112
 <L.S>= 0.000000000000E+00
 Annihilation of the first spin contaminant:
 S**2 before annihilation     0.7724,   after     0.7504
 QCSCF skips out because SCF is already converged.
 Range of M.O.s used for correlation:     1   336
 NBasis=   336 NAE=    64 NBE=    63 NFC=     0 NFV=     0
 NROrb=    336 NOA=    64 NOB=    63 NVA=   272 NVB=   273

 **** Warning!!: The largest alpha MO coefficient is  0.44688360D+02


 **** Warning!!: The smallest alpha delta epsilon is  0.66694412D-01


 **** Warning!!: The largest beta MO coefficient is  0.42426370D+02

 Symmetrizing basis deriv contribution to polar:
 IMax=3 JMax=2 DiffMx= 0.00D+00
 G2DrvN: will do    13 centers at a time, making    1 passes doing MaxLOS=3.
 Calling FoFCou, ICntrl=  3107 FMM=F I1Cent=   0 AccDes= 0.00D+00.
 FoFDir/FoFCou used for L=0 through L=3.
 End of G2Drv Frequency-dependent properties file   721 does not exist.
 End of G2Drv Frequency-dependent properties file   722 does not exist.
          IDoAtm=111111111111
          Differentiating once with respect to electric field.
                with respect to dipole field.
          Differentiating once with respect to nuclear coordinates.
          There are    39 degrees of freedom in the 1st order CPHF.  IDoFFX=5.
     36 vectors produced by pass  0 Test12= 8.87D-14 2.56D-09 XBig12= 9.99D+02 1.93D+01.
 AX will form    36 AO Fock derivatives at one time.
     36 vectors produced by pass  1 Test12= 8.87D-14 2.56D-09 XBig12= 2.23D+02 2.67D+00.
     36 vectors produced by pass  2 Test12= 8.87D-14 2.56D-09 XBig12= 3.39D+01 1.17D+00.
     36 vectors produced by pass  3 Test12= 8.87D-14 2.56D-09 XBig12= 1.68D+00 2.10D-01.
     36 vectors produced by pass  4 Test12= 8.87D-14 2.56D-09 XBig12= 7.19D-02 6.10D-02.
     36 vectors produced by pass  5 Test12= 8.87D-14 2.56D-09 XBig12= 1.59D-03 5.88D-03.
     36 vectors produced by pass  6 Test12= 8.87D-14 2.56D-09 XBig12= 3.64D-05 1.74D-03.
     36 vectors produced by pass  7 Test12= 8.87D-14 2.56D-09 XBig12= 5.37D-07 1.16D-04.
     30 vectors produced by pass  8 Test12= 8.87D-14 2.56D-09 XBig12= 5.70D-09 1.50D-05.
     15 vectors produced by pass  9 Test12= 8.87D-14 2.56D-09 XBig12= 7.02D-11 1.37D-06.
      7 vectors produced by pass 10 Test12= 8.87D-14 2.56D-09 XBig12= 5.41D-13 1.23D-07.
      2 vectors produced by pass 11 Test12= 8.87D-14 2.56D-09 XBig12= 4.07D-15 7.49D-09.
 Inverted reduced A of dimension   342 with in-core refinement.
 Isotropic polarizability for W=    0.000000      160.15 Bohr**3.
 End of Minotr Frequency-dependent properties file   721 does not exist.
 End of Minotr Frequency-dependent properties file   722 does not exist.

 **********************************************************************

            Population analysis using the SCF density.

 **********************************************************************

 Orbital symmetries:
 Alpha Orbitals:
       Occupied  (A1) (A1) (A1) (A1) (B1) (A1) (B2) (A1) (B2) (B1)
                 (B1) (A1) (A1) (A1) (B2) (A1) (B1) (A1) (A1) (B2)
                 (A1) (A1) (B1) (A1) (A1) (B2) (B2) (B1) (A1) (B1)
                 (A1) (A1) (B2) (A1) (A1) (B1) (A1) (B2) (A1) (A1)
                 (B2) (A2) (A1) (B2) (B1) (B1) (A1) (B2) (B2) (B1)
                 (A2) (A1) (B1) (A1) (A2) (B1) (A1) (B2) (A2) (A1)
                 (A1) (B2) (B1) (B2)
       Virtual   (B1) (A1) (A1) (A1) (B2) (A2) (B1) (A1) (A2) (B1)
                 (B2) (B1) (B2) (A1) (A1) (B2) (B1) (A1) (A1) (A1)
                 (B1) (A2) (B2) (A1) (A2) (B1) (A1) (B2) (B2) (B1)
                 (B1) (A1) (A1) (B2) (A1) (B2) (B1) (A1) (A1) (B1)
                 (A2) (B2) (A1) (B1) (A1) (B2) (A1) (B1) (A1) (A2)
                 (B1) (A1) (B2) (B2) (A1) (A1) (B1) (B1) (A1) (B2)
                 (A1) (A1) (B2) (B1) (A2) (A1) (B2) (A1) (A2) (A1)
                 (B2) (A1) (B1) (B2) (B1) (A1) (A2) (A1) (B1) (B2)
                 (B2) (A2) (B1) (A1) (B1) (B2) (A1) (A1) (B2) (B1)
                 (A1) (B2) (A1) (A1) (B1) (A1) (A1) (B1) (B2) (A1)
                 (A1) (A1) (B2) (A2) (B1) (A2) (B1) (B1) (A1) (B2)
                 (A1) (A1) (A1) (B1) (B2) (B2) (A1) (A2) (A2) (B2)
                 (A1) (B1) (A2) (B1) (B2) (A2) (B1) (A1) (B2) (A1)
                 (B1) (B1) (A1) (A1) (B2) (B2) (A1) (A2) (B1) (B2)
                 (A1) (A1) (B2) (A2) (A1) (B1) (A2) (B1) (A1) (B1)
                 (A1) (A1) (B2) (B2) (A1) (B2) (B1) (A1) (B2) (A1)
                 (B1) (A2) (B1) (A1) (A2) (B2) (B2) (B1) (A1) (A2)
                 (A2) (A1) (B1) (B2) (A1) (A1) (B1) (A2) (B2) (B1)
                 (A1) (B2) (A1) (A1) (B1) (A1) (B2) (A1) (B1) (A2)
                 (B1) (B2) (A2) (B2) (B1) (A1) (A1) (B2) (B1) (A2)
                 (A1) (B2) (A2) (B2) (B1) (B1) (A1) (B1) (B2) (A1)
                 (B2) (A1) (A1) (B2) (B1) (A1) (A1) (A1) (A1) (B2)
                 (A2) (B1) (A2) (B1) (B2) (B1) (A1) (B2) (A1) (B2)
                 (B1) (A1) (A1) (A1) (A2) (A1) (A2) (B1) (A1) (B2)
                 (A1) (B2) (B1) (A1) (B1) (B2) (B2) (B1) (A1) (A1)
                 (A1) (B2) (B1) (A1) (A1) (A1) (A1) (B1) (B2) (B2)
                 (B1) (A1) (A1) (B2) (A1) (A1) (B1) (A1) (A1) (A1)
                 (A1) (A1)
 Beta  Orbitals:
       Occupied  (A1) (A1) (A1) (A1) (B1) (A1) (B2) (A1) (B2) (B1)
                 (B1) (A1) (A1) (A1) (B2) (B1) (A1) (A1) (A1) (B2)
                 (A1) (A1) (B1) (A1) (A1) (B2) (B2) (B1) (A1) (B1)
                 (A1) (A1) (B2) (A1) (A1) (B1) (A1) (B2) (A1) (A1)
                 (A1) (B1) (B1) (B2) (A2) (B2) (B1) (B2) (A1) (B1)
                 (A2) (A1) (B2) (A1) (A2) (B1) (B2) (A1) (A2) (A1)
                 (A1) (B1) (B2)
       Virtual   (B2) (B1) (A1) (A1) (A1) (B2) (A2) (B1) (B1) (A2)
                 (B1) (A1) (B2) (A1) (B2) (A1) (B1) (B2) (A1) (A1)
                 (B1) (A1) (A2) (B2) (A1) (A2) (B1) (A1) (B2) (B2)
                 (B1) (B1) (A1) (A1) (B2) (A1) (B2) (B1) (A1) (A1)
                 (B1) (A2) (B2) (A1) (B1) (B2) (A1) (A1) (B1) (A1)
                 (A2) (B1) (A1) (B2) (B2) (A1) (A1) (B1) (B1) (A1)
                 (B2) (A1) (A1) (B1) (B2) (A1) (A2) (B2) (A1) (A2)
                 (A1) (B2) (A1) (B1) (B2) (B1) (A1) (A2) (A1) (B1)
                 (B2) (A2) (B2) (B1) (A1) (B1) (B2) (A1) (A1) (B2)
                 (B1) (A1) (B2) (A1) (A1) (B1) (A1) (A1) (B1) (B2)
                 (A1) (A1) (A1) (B2) (A2) (B1) (A2) (B1) (B1) (A1)
                 (A1) (B2) (A1) (A1) (B1) (B2) (B2) (A1) (A2) (A2)
                 (B2) (A1) (B1) (A2) (B1) (B2) (A2) (B1) (A1) (B2)
                 (B1) (A1) (B1) (A1) (A1) (B2) (B2) (A1) (A2) (B1)
                 (B2) (A1) (A1) (A2) (B2) (A1) (B1) (A2) (B1) (A1)
                 (B1) (A1) (A1) (B2) (B2) (A1) (B2) (B1) (A1) (B2)
                 (A1) (B1) (A2) (B1) (A1) (A2) (B2) (B1) (B2) (A1)
                 (A2) (A1) (A2) (B1) (A1) (B2) (A1) (B1) (A2) (B2)
                 (B1) (A1) (B2) (A1) (A1) (B1) (A1) (B2) (A1) (B1)
                 (A2) (B1) (B2) (A2) (B2) (B1) (A1) (A1) (B2) (B1)
                 (A2) (A1) (B2) (A2) (B2) (B1) (B1) (A1) (B1) (B2)
                 (A1) (B2) (A1) (A1) (B2) (B1) (A1) (A1) (A1) (A1)
                 (B1) (A2) (B2) (A2) (B1) (B2) (B1) (A1) (B2) (A1)
                 (B2) (B1) (A1) (A1) (A1) (A2) (A1) (A2) (B1) (A1)
                 (B2) (A1) (B2) (B1) (A1) (B1) (B2) (B2) (B1) (A1)
                 (A1) (A1) (B2) (B1) (A1) (A1) (A1) (A1) (B1) (B2)
                 (B2) (B1) (A1) (A1) (B2) (A1) (A1) (B1) (A1) (A1)
                 (A1) (A1) (A1)
 The electronic state is 2-B2.
 Alpha  occ. eigenvalues -- -299.68365-299.66374 -35.61316 -35.58875 -31.06064
 Alpha  occ. eigenvalues --  -31.05738 -31.05240 -31.03746 -31.03524 -31.02570
 Alpha  occ. eigenvalues --  -19.06576 -19.06576 -19.06387 -19.04284 -19.04283
 Alpha  occ. eigenvalues --  -10.14738 -10.14738 -10.14387 -10.13505 -10.13505
 Alpha  occ. eigenvalues --   -3.87117  -3.85012  -2.46918  -2.46353  -2.45250
 Alpha  occ. eigenvalues --   -2.45120  -2.44279  -2.42661  -0.99947  -0.99934
 Alpha  occ. eigenvalues --   -0.99607  -0.97274  -0.97261  -0.45404  -0.43957
 Alpha  occ. eigenvalues --   -0.43456  -0.42908  -0.42652  -0.35129  -0.33352
 Alpha  occ. eigenvalues --   -0.32714  -0.32642  -0.32543  -0.32353  -0.32108
 Alpha  occ. eigenvalues --   -0.32056  -0.31268  -0.31106  -0.31016  -0.30865
 Alpha  occ. eigenvalues --   -0.30059  -0.30017  -0.29985  -0.15279  -0.14609
 Alpha  occ. eigenvalues --   -0.14087  -0.13064  -0.12899  -0.11708  -0.10538
 Alpha  occ. eigenvalues --   -0.10049  -0.09661  -0.09559  -0.01015
 Alpha virt. eigenvalues --    0.05654   0.09095   0.09130   0.10044   0.10906
 Alpha virt. eigenvalues --    0.11030   0.11873   0.12321   0.12443   0.12986
 Alpha virt. eigenvalues --    0.13190   0.13484   0.14371   0.14674   0.16017
 Alpha virt. eigenvalues --    0.16235   0.16422   0.17541   0.17898   0.18788
 Alpha virt. eigenvalues --    0.18810   0.19646   0.19790   0.19914   0.22075
[...]
 Thermal correction to Energy=                    0.053398
 Thermal correction to Enthalpy=                  0.054342
 Thermal correction to Gibbs Free Energy=        -0.006810
 Sum of electronic and zero-point Energies=          -3583.577135
 Sum of electronic and thermal Energies=             -3583.562137
 Sum of electronic and thermal Enthalpies=           -3583.561193
 Sum of electronic and thermal Free Energies=        -3583.622346
 
                     E (Thermal)             CV                S
                      KCal/Mol        Cal/Mol-Kelvin    Cal/Mol-Kelvin
 Total                   33.508             47.116            128.707
 Electronic               0.000              0.000              1.377
 Translational            0.889              2.981             42.518
 Rotational               0.889              2.981             30.516
 Vibrational             31.730             41.154             54.296
 Vibration     1          0.594              1.984              5.808
 Vibration     2          0.594              1.981              5.188
 Vibration     3          0.595              1.978              4.842
 Vibration     4          0.597              1.973              4.416
 Vibration     5          0.597              1.972              4.386
 Vibration     6          0.598              1.970              4.228
 Vibration     7          0.602              1.955              3.615
 Vibration     8          0.618              1.902              2.670
 Vibration     9          0.625              1.880              2.445
 Vibration    10          0.645              1.817              1.992
 Vibration    11          0.664              1.758              1.709
 Vibration    12          0.685              1.697              1.487
 Vibration    13          0.707              1.630              1.298
 Vibration    14          0.729              1.569              1.153
 Vibration    15          0.742              1.535              1.081
 Vibration    16          0.742              1.534              1.081
 Vibration    17          0.762              1.481              0.981
 Vibration    18          0.765              1.472              0.966
 Vibration    19          0.793              1.400              0.852
 Vibration    20          0.806              1.367              0.804
 Vibration    21          0.815              1.345              0.775
 Vibration    22          0.846              1.272              0.684
 Vibration    23          0.852              1.259              0.668
 Vibration    24          0.879              1.197              0.601
 Vibration    25          0.899              1.154              0.558
                       Q            Log10(Q)             Ln(Q)
 Total Bot       0.135703D+04          3.132588          7.213051
 Total V=0       0.624403D+21         20.795465         47.883327
 Vib (Bot)       0.405061D-11        -11.392480        -26.232155
 Vib (Bot)    1  0.682870D+01          0.834338          1.921134
 Vib (Bot)    2  0.498922D+01          0.698033          1.607280
 Vib (Bot)    3  0.418658D+01          0.621859          1.431883
 Vib (Bot)    4  0.336939D+01          0.527551          1.214731
 Vib (Bot)    5  0.331954D+01          0.521079          1.199828
 Vib (Bot)    6  0.306050D+01          0.485792          1.118578
 Vib (Bot)    7  0.223168D+01          0.348632          0.802755
 Vib (Bot)    8  0.134993D+01          0.130312          0.300054
 Vib (Bot)    9  0.119150D+01          0.076095          0.175216
 Vib (Bot)   10  0.917319D+00         -0.037480         -0.086300
 Vib (Bot)   11  0.770190D+00         -0.113402         -0.261118
 Vib (Bot)   12  0.665449D+00         -0.176885         -0.407293
 Vib (Bot)   13  0.582100D+00         -0.235003         -0.541114
 Vib (Bot)   14  0.521721D+00         -0.282561         -0.650621
 Vib (Bot)   15  0.492602D+00         -0.307504         -0.708055
 Vib (Bot)   16  0.492451D+00         -0.307637         -0.708360
 Vib (Bot)   17  0.452972D+00         -0.343929         -0.791925
 Vib (Bot)   18  0.446901D+00         -0.349789         -0.805418
 Vib (Bot)   19  0.402483D+00         -0.395252         -0.910102
 Vib (Bot)   20  0.384187D+00         -0.415457         -0.956626
 Vib (Bot)   21  0.372973D+00         -0.428323         -0.986249
 Vib (Bot)   22  0.338472D+00         -0.470478         -1.083315
 Vib (Bot)   23  0.332554D+00         -0.478138         -1.100954
 Vib (Bot)   24  0.306970D+00         -0.512903         -1.181004
 Vib (Bot)   25  0.290516D+00         -0.536830         -1.236096
 Vib (V=0)       0.186379D+07          6.270397         14.438122
 Vib (V=0)    1  0.734698D+01          0.866109          1.994289
 Vib (V=0)    2  0.551421D+01          0.741484          1.707329
 Vib (V=0)    3  0.471633D+01          0.673604          1.551030
 Vib (V=0)    4  0.390628D+01          0.591764          1.362586
 Vib (V=0)    5  0.385699D+01          0.586248          1.349887
 Vib (V=0)    6  0.360107D+01          0.556432          1.281232
 Vib (V=0)    7  0.278701D+01          0.445138          1.024968
 Vib (V=0)    8  0.193955D+01          0.287702          0.662458
 Vib (V=0)    9  0.179216D+01          0.253377          0.583422
 Vib (V=0)   10  0.154474D+01          0.188854          0.434853
 Vib (V=0)   11  0.141826D+01          0.151754          0.349427
 Vib (V=0)   12  0.133236D+01          0.124621          0.286951
 Vib (V=0)   13  0.126736D+01          0.102900          0.236935
 Vib (V=0)   14  0.122263D+01          0.087295          0.201004
 Vib (V=0)   15  0.120189D+01          0.079866          0.183899
 Vib (V=0)   16  0.120179D+01          0.079828          0.183811
 Vib (V=0)   17  0.117467D+01          0.069917          0.160990
 Vib (V=0)   18  0.117061D+01          0.068413          0.157527
 Vib (V=0)   19  0.114187D+01          0.057615          0.132664
 Vib (V=0)   20  0.113056D+01          0.053292          0.122709
 Vib (V=0)   21  0.112379D+01          0.050684          0.116703
 Vib (V=0)   22  0.110379D+01          0.042887          0.098750
 Vib (V=0)   23  0.110049D+01          0.041587          0.095758
 Vib (V=0)   24  0.108671D+01          0.036114          0.083157
 Vib (V=0)   25  0.107827D+01          0.032729          0.075361
 Electronic      0.200000D+01          0.301030          0.693147
 Translational   0.160850D+09          8.206421         18.895983
 Rotational      0.104140D+07          6.017617         13.856075
 ***** Axes restored to original set *****
 -------------------------------------------------------------------
 Center     Atomic                   Forces (Hartrees/Bohr)
 Number     Number              X              Y              Z
 -------------------------------------------------------------------
      1       28           0.000000000    0.000000000    0.000002844
      2       28           0.000000000    0.000000000    0.000000303
      3        6           0.000000000    0.000000000   -0.000001346
      4        6           0.000000000   -0.000000704   -0.000002562
      5        6           0.000000248    0.000000000    0.000000489
      6        6          -0.000000248    0.000000000    0.000000489
      7        6           0.000000000    0.000000704   -0.000002562
      8        8           0.000000000   -0.000000261    0.000000810
      9        8          -0.000000139    0.000000000   -0.000000240
     10        8           0.000000139    0.000000000   -0.000000240
     11        8           0.000000000    0.000000261    0.000000810
     12        8           0.000000000    0.000000000    0.000001205
 -------------------------------------------------------------------
 Cartesian Forces:  Max     0.000002844 RMS     0.000000878

 GradGradGradGradGradGradGradGradGradGradGradGradGradGradGradGradGradGrad
 Berny optimization.
 Search for a local minimum.
 Step number   1 out of a maximum of    2
 All quantities printed in internal units (Hartrees-Bohrs-Radians)
 Second derivative matrix not updated -- analytic derivatives used.
     Eigenvalues ---    0.00053   0.00099   0.00171   0.00235   0.00288
     Eigenvalues ---    0.00369   0.00939   0.01595   0.01971   0.03968
     Eigenvalues ---    0.04010   0.04548   0.05068   0.06342   0.06528
     Eigenvalues ---    0.08051   0.08295   0.08467   0.10989   0.11752
     Eigenvalues ---    0.15277   0.21414   0.21510   0.27908   0.37626
     Eigenvalues ---    1.80581   1.85067   2.00065   2.03490   2.15886
 Angle between quadratic step and forces=  41.42 degrees.
 ClnCor:  largest displacement from symmetrization is 1.93D-10 for atom    12.
 Linear search not attempted -- first point.
 ClnCor:  largest displacement from symmetrization is 1.98D-27 for atom     2.
 TrRot=  0.000000  0.000000  0.000003  0.000000  0.000000  0.000000
 Variable       Old X    -DE/DX   Delta X   Delta X   Delta X     New X
                                 (Linear)    (Quad)   (Total)
    X1        0.00000   0.00000   0.00000   0.00000   0.00000   0.00000
    Y1        0.00000   0.00000   0.00000   0.00000   0.00000   0.00000
    Z1        2.51695   0.00000   0.00000   0.00002   0.00003   2.51697
    X2        0.00000   0.00000   0.00000   0.00000   0.00000   0.00000
    Y2        0.00000   0.00000   0.00000   0.00000   0.00000   0.00000
    Z2       -1.98340   0.00000   0.00000   0.00001   0.00001  -1.98339
    X3        0.00000   0.00000   0.00000   0.00000   0.00000   0.00000
    Y3        0.00000   0.00000   0.00000   0.00000   0.00000   0.00000
    Z3        5.80499   0.00000   0.00000   0.00002   0.00002   5.80501
    X4        0.00000   0.00000   0.00000   0.00000   0.00000   0.00000
    Y4        2.96793   0.00000   0.00000  -0.00002  -0.00002   2.96791
    Z4        0.48048   0.00000   0.00000  -0.00004  -0.00004   0.48044
    X5       -2.88405   0.00000   0.00000   0.00000   0.00000  -2.88404
    Y5        0.00000   0.00000   0.00000   0.00000   0.00000   0.00000
    Z5       -3.74877   0.00000   0.00000   0.00000   0.00000  -3.74877
    X6        2.88405   0.00000   0.00000   0.00000   0.00000   2.88404
    Y6        0.00000   0.00000   0.00000   0.00000   0.00000   0.00000
    Z6       -3.74877   0.00000   0.00000   0.00000   0.00000  -3.74877
    X7        0.00000   0.00000   0.00000   0.00000   0.00000   0.00000
    Y7       -2.96793   0.00000   0.00000   0.00002   0.00002  -2.96791
    Z7        0.48048   0.00000   0.00000  -0.00004  -0.00004   0.48044
    X8        0.00000   0.00000   0.00000   0.00000   0.00000   0.00000
    Y8        5.17155   0.00000   0.00000  -0.00001  -0.00001   5.17154
    Z8        0.29666   0.00000   0.00000   0.00000   0.00001   0.29666
    X9       -4.70753   0.00000   0.00000   0.00001   0.00001  -4.70751
    Y9        0.00000   0.00000   0.00000   0.00000   0.00000   0.00000
    Z9       -4.95392   0.00000   0.00000  -0.00001  -0.00001  -4.95393
   X10        4.70753   0.00000   0.00000  -0.00001  -0.00001   4.70751
   Y10        0.00000   0.00000   0.00000   0.00000   0.00000   0.00000
   Z10       -4.95392   0.00000   0.00000  -0.00001  -0.00001  -4.95393
   X11        0.00000   0.00000   0.00000   0.00000   0.00000   0.00000
   Y11       -5.17155   0.00000   0.00000   0.00001   0.00001  -5.17154
   Z11        0.29666   0.00000   0.00000   0.00000   0.00001   0.29666
   X12        0.00000   0.00000   0.00000   0.00000   0.00000   0.00000
   Y12        0.00000   0.00000   0.00000   0.00000   0.00000   0.00000
   Z12        7.99580   0.00000   0.00000   0.00002   0.00002   7.99583
         Item               Value     Threshold  Converged?
 Maximum Force            0.000003     0.000015     YES
 RMS     Force            0.000001     0.000010     YES
 Maximum Displacement     0.000038     0.000060     YES
 RMS     Displacement     0.000013     0.000040     YES
 Predicted change in Energy=-1.572233D-10
 Optimization completed.
    -- Stationary point found.
 GradGradGradGradGradGradGradGradGradGradGradGradGradGradGradGradGradGrad


 Test job not archived.
 1|1|UNPC-123-PC|Freq|UB3LYP|6-311+G(d)|C5Ni2O5(1-,2)|123|19-Oct-2016|0
 ||#N Geom=AllCheck Guess=TCheck SCRF=Check Test GenChk UB3LYP/6-311+G(
 d) Freq||from Ni2CO5-_221_A_2th_2||-1,2|Ni,0.,0.,1.331911|Ni,0.,0.,-1.
 049571|C,0.,0.,3.071868|C,0.,1.570561,0.25426|C,-1.526171,0.,-1.983766
 |C,1.526171,0.,-1.983766|C,0.,-1.570561,0.25426|O,0.,2.736669,0.156985
 |O,-2.491116,0.,-2.6215|O,2.491116,0.,-2.6215|O,0.,-2.736669,0.156985|
 O,0.,0.,4.231196||Version=IA32W-G09RevA.02|State=2-B2|HF=-3583.6155353
 |S2=0.772442|S2-1=0.|S2A=0.750389|RMSD=1.598e-009|RMSF=8.781e-007|Zero
 Point=0.0384003|Thermal=0.0533982|Dipole=0.,0.,-0.0048702|DipoleDeriv=
 -0.0540171,0.,0.,0.,-0.7030438,0.,0.,0.,-1.5374594,-1.1589462,0.,0.,0.
 ,-0.748437,0.,0.,0.,-1.370893,-0.0432893,0.,0.,0.,0.3866485,0.,0.,0.,3
 .914646,0.1089724,0.,0.,0.,2.5998491,0.3390754,0.,-0.065605,0.785342,2
 .2830504,0.,1.778673,0.,0.2560316,0.,1.3895248,0.,1.3991788,2.2830504,
 0.,-1.778673,0.,0.2560316,0.,-1.3895247,0.,1.3991788,0.1089724,0.,0.,0
 .,2.5998491,-0.3390754,0.,0.065605,0.785342,-0.1805252,0.,0.,0.,-2.464
 2909,-0.3139613,0.,0.1373001,-0.3314717,-2.0070475,0.,-1.5833184,0.,-0
 .2198293,0.,-1.2189367,0.,-1.2376857,-2.0070475,0.,1.5833184,0.,-0.219
 8293,0.,1.2189366,0.,-1.2376857,-0.1805252,0.,0.,0.,-2.4642909,0.31396
 13,0.,-0.1373001,-0.3314717,-0.1526475,0.,0.,0.,-0.2786885,0.,0.,0.,-3
 .2370207|Polar=129.1145918,0.,132.3429931,0.,0.,218.9889297|PG=C02V [C
 2(Ni1Ni1C1O1),SGV(C2O2),SGV'(C2O2)]|NImag=0||0.04816347,0.,0.16228857,
 0.,0.,0.29657753,0.00117902,0.,0.,0.22793334,0.,0.01486974,0.,0.,0.083
 80930,0.,0.,-0.05743383,0.,0.,0.19149876,-0.03944895,0.,0.,0.00408393,
 0.,0.,0.05587939,0.,-0.05294991,0.,0.,0.00171838,0.,0.,0.08106702,0.,0
 .,-0.14617722,0.,0.,0.00429020,0.,0.,1.14592097,-0.01960964,0.,0.,-0.0
 1335511,0.,0.,0.00146154,0.,0.,0.05441953,0.,-0.05423009,0.01577589,0.
 ,0.00177615,0.00952257,0.,-0.00521885,0.02210326,0.,0.97282993,0.,-0.0
 0811364,-0.01389118,0.,0.02288009,-0.01084788,0.,0.02039157,-0.0193140
 5,0.,-0.09982941,0.05858100,-0.00047526,0.,0.00650981,-0.07704028,0.,-
 0.03400046,0.00213214,0.,-0.01177186,-0.00411008,-0.01800875,-0.005739
 62,0.80317226,0.,-0.00125062,0.,0.,-0.03054855,0.,0.,-0.00117653,0.,-0
 .00562752,-0.00863101,-0.01169979,0.,0.05117949,-0.00220170,0.,-0.0029
 0807,-0.03699082,0.,-0.04921471,0.00374576,0.,-0.00922106,-0.01004837,
 -0.01718423,-0.00810617,0.48173628,0.,0.38544130,-0.00047526,0.,-0.006
 50981,-0.07704028,0.,0.03400046,0.00213214,0.,0.01177186,-0.00411008,0
 .01800875,0.00573962,-0.04979058,0.,0.00302108,0.80317226,0.,-0.001250
 61,0.,0.,-0.03054852,0.,0.,-0.00117654,0.,0.00562752,-0.00863101,-0.01
 169979,0.,0.01240698,0.,0.,0.05117945,0.00220170,0.,-0.00290807,0.0369
 9082,0.,-0.04921471,-0.00374576,0.,-0.00922106,0.01004837,-0.01718423,
 -0.00810617,-0.00302108,0.,0.01038978,-0.48173628,0.,0.38544130,-0.019
 60964,0.,0.,-0.01335511,0.,0.,0.00146154,0.,0.,0.01087328,0.,0.,-0.004
 11008,0.00562752,-0.01004837,-0.00411008,-0.00562752,0.01004837,0.0544
 1953,0.,-0.05423009,-0.01577590,0.,0.00177615,-0.00952257,0.,-0.005218
 85,-0.02210326,0.,-0.03858892,-0.00178062,0.01800874,-0.00863101,0.017
 18423,-0.01800874,-0.00863101,0.01718423,0.,0.97282993,0.,0.00811363,-
 0.01389117,0.,-0.02288008,-0.01084788,0.,-0.02039156,-0.01931405,0.,0.
 00178063,0.00549278,-0.00573962,0.01169979,-0.00810617,0.00573962,0.01
 169979,-0.00810617,0.,0.09982942,0.05858100,0.00781629,0.,0.,0.0036797
 0,0.,0.,-0.00047611,0.,0.,-0.02416220,0.,0.,0.00066704,0.00207239,0.00
 190569,0.00066704,-0.00207240,-0.00190569,-0.00212585,0.,0.,0.01230778
 ,0.,-0.01673484,0.01473812,0.,-0.03254280,-0.01872944,0.,0.00936369,-0
 .01918284,0.,-0.88419008,0.08520850,0.01791529,0.00684698,0.01357307,-
 0.01791529,0.00684698,0.01357307,0.,0.01450955,-0.00385246,0.,0.919106
 01,0.,0.02061037,-0.00339038,0.,-0.01568689,0.00028019,0.,-0.00814027,
 0.00570793,0.,0.07382125,-0.02637980,0.00084907,0.00187071,0.00111560,
 -0.00084907,0.00187071,0.00111560,0.,-0.00007922,0.00012978,0.,-0.0766
 0429,0.02797188,-0.00066562,0.,-0.00581407,-0.02923699,0.,-0.02606159,
 0.00021261,0.,0.01042770,0.00033822,0.01590100,0.00533231,-0.69266454,
 0.,-0.43793140,0.02246695,0.,-0.00636396,0.00033822,-0.01590100,0.0053
 3231,0.00058505,-0.01670177,-0.00161117,0.71261516,0.,0.00060436,0.,0.
 ,0.01145898,0.,0.,0.00078906,0.,0.00183485,0.00341184,0.00400791,0.,-0
 .02442043,0.,0.,-0.00322953,0.,-0.00183485,0.00341184,-0.00400791,-0.0
 0079450,-0.00270203,-0.00056951,0.,0.01307160,-0.00008012,0.,-0.001131
 50,-0.02204179,0.,-0.00652111,-0.00046228,0.,0.00731973,0.00222350,0.0
 1199637,0.00492146,-0.43750891,0.,-0.31983154,0.00266736,0.,-0.0072058
 3,0.00222350,-0.01199638,0.00492146,-0.00004596,-0.01151861,-0.0011679
 3,0.46009473,0.,0.31891451,-0.00066562,0.,0.00581407,-0.02923699,0.,0.
 02606159,0.00021261,0.,-0.01042770,0.00033822,-0.01590100,-0.00533231,
 0.02246695,0.,0.00636396,-0.69266454,0.,0.43793140,0.00033822,0.015901
 00,-0.00533231,0.00058505,0.01670177,0.00161117,-0.01459722,0.,-0.0072
 5835,0.71261516,0.,0.00060436,0.,0.,0.01145898,0.,0.,0.00078906,0.,-0.
 00183485,0.00341184,0.00400791,0.,-0.00322952,0.,0.,-0.02442042,0.,0.0
 0183485,0.00341184,-0.00400791,0.00079450,-0.00270203,-0.00056951,0.,0
 .00065626,0.,0.,0.01307159,0.00008012,0.,-0.00113150,0.02204179,0.,-0.
 00652111,0.00046228,0.,0.00731973,-0.00222350,0.01199637,0.00492146,-0
 .00266736,0.,-0.00720583,0.43750891,0.,-0.31983154,-0.00222350,-0.0119
 9637,0.00492146,0.00004596,-0.01151861,-0.00116793,0.00725834,0.,0.006
 64981,-0.46009473,0.,0.31891451,0.00781629,0.,0.,0.00367970,0.,0.,-0.0
 0047611,0.,0.,-0.00212585,0.,0.,0.00066704,-0.00207239,0.00190569,0.00
 066704,0.00207239,-0.00190569,-0.02416220,0.,0.,0.00052517,0.,0.,0.000
 58505,0.00079450,-0.00004596,0.00058505,-0.00079450,0.00004596,0.01230
 778,0.,-0.01673485,-0.01473812,0.,-0.03254280,0.01872944,0.,0.00936370
 ,0.01918284,0.,0.01450955,0.00385246,-0.01791529,0.00684698,-0.0135730
 7,0.01791529,0.00684698,-0.01357307,0.,-0.88419008,-0.08520850,0.,-0.0
 1406234,0.00092604,0.01670177,-0.00270203,0.01151861,-0.01670177,-0.00
 270203,0.01151861,0.,0.91910601,0.,-0.02061036,-0.00339038,0.,0.015686
 89,0.00028019,0.,0.00814027,0.00570793,0.,0.00007922,0.00012978,0.0008
 4907,-0.00187071,0.00111560,-0.00084907,-0.00187071,0.00111560,0.,-0.0
 7382125,-0.02637979,0.,-0.00092604,0.00101404,-0.00161117,0.00056951,-
 0.00116793,0.00161117,0.00056951,-0.00116793,0.,0.07660430,0.02797188,
 0.01597491,0.,0.,-0.00129094,0.,0.,-0.02717475,0.,0.,0.00004216,0.,0.,
 -0.00091462,0.,-0.00145780,-0.00091462,0.,0.00145780,0.00004216,0.,0.,
 -0.00006896,0.,0.,0.00002310,0.,0.00023427,0.00002310,0.,-0.00023427,-
 0.00006896,0.,0.,0.01432743,0.,0.01901398,0.,0.,-0.00068501,0.,0.,-0.0
 3735023,0.,0.,0.00355064,-0.00722518,0.,0.00060724,0.,0.,0.00060724,0.
 ,0.,0.00355064,0.00722518,0.,-0.00373908,0.00255062,0.,-0.00034993,0.,
 0.,-0.00034993,0.,0.,-0.00373908,-0.00255062,0.,0.01888353,0.,0.,-0.05
 032423,0.,0.,-0.00574810,0.,0.,-0.97301904,0.,-0.01287770,0.01259877,0
 .01050468,0.,0.00653127,-0.01050468,0.,0.00653127,0.,0.01287770,0.0125
 9877,0.,0.01523954,-0.00522900,-0.00905203,0.,-0.00570112,0.00905203,0
 .,-0.00570112,0.,-0.01523953,-0.00522900,0.,0.,1.01269154||0.,0.,-0.00
 000284,0.,0.,-0.00000030,0.,0.,0.00000135,0.,0.00000070,0.00000256,-0.
 00000025,0.,-0.00000049,0.00000025,0.,-0.00000049,0.,-0.00000070,0.000
 00256,0.,0.00000026,-0.00000081,0.00000014,0.,0.00000024,-0.00000014,0
 .,0.00000024,0.,-0.00000026,-0.00000081,0.,0.,-0.00000120|||@


 FLOATING POINT NUMBERS ARE LIKE SANDPILES:
 EVERY TIME THAT YOU MOVE ONE, YOU LOSE A LITTLE SAND 
 AND YOU PICK UP A LITTLE DIRT.
 Job cpu time:  0 days  2 hours  4 minutes 34.0 seconds.
 File lengths (MBytes):  RWF=    346 Int=      0 D2E=      0 Chk=     10 Scr=      1
 Normal termination of Gaussian 09 at Wed Oct 19 21:43:27 2016.
