 Entering Link 1 = C:\G09W\l1.exe PID=     12380.
  
 Copyright (c) 1988,1990,1992,1993,1995,1998,2003,2009, Gaussian, Inc.
                  All Rights Reserved.
  
 This is part of the Gaussian(R) 09 program.  It is based on
 the Gaussian(R) 03 system (copyright 2003, Gaussian, Inc.),
 the Gaussian(R) 98 system (copyright 1998, Gaussian, Inc.),
 the Gaussian(R) 94 system (copyright 1995, Gaussian, Inc.),
 the Gaussian 92(TM) system (copyright 1992, Gaussian, Inc.),
 the Gaussian 90(TM) system (copyright 1990, Gaussian, Inc.),
 the Gaussian 88(TM) system (copyright 1988, Gaussian, Inc.),
 the Gaussian 86(TM) system (copyright 1986, Carnegie Mellon
 University), and the Gaussian 82(TM) system (copyright 1983,
 Carnegie Mellon University). Gaussian is a federally registered
 trademark of Gaussian, Inc.
  
 This software contains proprietary and confidential information,
 including trade secrets, belonging to Gaussian, Inc.
  
 This software is provided under written license and may be
 used, copied, transmitted, or stored only in accord with that
 written license.
  
 The following legend is applicable only to US Government
 contracts under FAR:
  
                    RESTRICTED RIGHTS LEGEND
  
 Use, reproduction and disclosure by the US Government is
 subject to restrictions as set forth in subparagraphs (a)
 and (c) of the Commercial Computer Software - Restricted
 Rights clause in FAR 52.227-19.
  
 Gaussian, Inc.
 340 Quinnipiac St., Bldg. 40, Wallingford CT 06492
  
  
 ---------------------------------------------------------------
 Warning -- This program may not be used in any manner that
 competes with the business of Gaussian, Inc. or will provide
 assistance to any competitor of Gaussian, Inc.  The licensee
 of this program is prohibited from giving any competitor of
 Gaussian, Inc. access to this program.  By using this program,
 the user acknowledges that Gaussian, Inc. is engaged in the
 business of creating and licensing software in the field of
 computational chemistry and represents and warrants to the
 licensee that it is not a competitor of Gaussian, Inc. and that
 it will not use this program in any manner prohibited above.
 ---------------------------------------------------------------
  

 Cite this work as:
 Gaussian 09, Revision A.02,
 M. J. Frisch, G. W. Trucks, H. B. Schlegel, G. E. Scuseria, 
 M. A. Robb, J. R. Cheeseman, G. Scalmani, V. Barone, B. Mennucci, 
 G. A. Petersson, H. Nakatsuji, M. Caricato, X. Li, H. P. Hratchian, 
 A. F. Izmaylov, J. Bloino, G. Zheng, J. L. Sonnenberg, M. Hada, 
 M. Ehara, K. Toyota, R. Fukuda, J. Hasegawa, M. Ishida, T. Nakajima, 
 Y. Honda, O. Kitao, H. Nakai, T. Vreven, J. A. Montgomery, Jr., 
 J. E. Peralta, F. Ogliaro, M. Bearpark, J. J. Heyd, E. Brothers, 
 K. N. Kudin, V. N. Staroverov, R. Kobayashi, J. Normand, 
 K. Raghavachari, A. Rendell, J. C. Burant, S. S. Iyengar, J. Tomasi, 
 M. Cossi, N. Rega, J. M. Millam, M. Klene, J. E. Knox, J. B. Cross, 
 V. Bakken, C. Adamo, J. Jaramillo, R. Gomperts, R. E. Stratmann, 
 O. Yazyev, A. J. Austin, R. Cammi, C. Pomelli, J. W. Ochterski, 
 R. L. Martin, K. Morokuma, V. G. Zakrzewski, G. A. Voth, 
 P. Salvador, J. J. Dannenberg, S. Dapprich, A. D. Daniels, 
 O. Farkas, J. B. Foresman, J. V. Ortiz, J. Cioslowski, 
 and D. J. Fox, Gaussian, Inc., Wallingford CT, 2009.
 
 ******************************************
 Gaussian 09:  IA32W-G09RevA.02 11-Jun-2009
                23-Oct-2016 
 ******************************************
 %nprocshared=1
 Will use up to    1 processors via shared memory.
 %chk=E:\theoretical calculation\Ni2COn-\6311+Gd Use\Ni2CO6-_33_D3d_2th_4_big_chk
 _NBO.chk
 %mem=400MB
 ------------------------------------------------------------------
 # ub3lyp/6-311+g(d) guess=read geom=allcheck pop=(nboread,savenbo)
 ------------------------------------------------------------------
 1/29=7,38=1/1;
 2/12=2,40=1/2;
 3/5=4,6=6,7=11,11=2,14=-4,16=1,25=1,30=1,74=-5,116=2/1,2,3;
 4/5=1/1;
 5/5=2,38=6/2;
 6/7=2,8=2,9=2,10=2,28=1,40=1,73=1/1,7;
 99/5=1,9=1/99;
 -------------------------
 from Ni2CO6-_33_D3d_2th_2
 -------------------------
 No Z-matrix found on checkpoint file.
 Cartesian coordinates read from the checkpoint file:
 E:\theoretical calculation\Ni2COn-\6311+Gd Use\Ni2CO6-_33_D3d_2th_4_big_chk_NBO.chk
 Charge = -1 Multiplicity = 2
  Ni                                                0.000000000000      0.000000000000      1.423394567665
  Ni                                                0.000000000000      0.000000000000     -1.423394567665
  C                                                 0.000000104090      1.789535404827      1.587267277326
  C                                                 1.549783069507     -0.894767792558      1.587267277326
  C                                                -1.549783173597     -0.894767612270      1.587267277326
  C                                                -1.549783069507      0.894767792558     -1.587267277326
  C                                                -0.000000104090     -1.789535404827     -1.587267277326
  C                                                 1.549783173597      0.894767612270     -1.587267277326
  O                                                 0.000000170841      2.937140462424      1.702665569192
  O                                                -2.543638340363     -1.468570083260      1.702665569192
  O                                                -2.543638169522      1.468570379165     -1.702665569192
  O                                                -0.000000170841     -2.937140462424     -1.702665569192
  O                                                 2.543638340363      1.468570083260     -1.702665569192
  O                                                 2.543638169522     -1.468570379165      1.702665569192
 Recover connectivity data from disk.
                          Input orientation:                          
 ---------------------------------------------------------------------
 Center     Atomic      Atomic             Coordinates (Angstroms)
 Number     Number       Type             X           Y           Z
 ---------------------------------------------------------------------
      1         28           0        0.000000    0.000000    1.423395
      2         28           0        0.000000    0.000000   -1.423395
      3          6           0        0.000000    1.789535    1.587267
      4          6           0        1.549783   -0.894768    1.587267
      5          6           0       -1.549783   -0.894768    1.587267
      6          6           0       -1.549783    0.894768   -1.587267
      7          6           0        0.000000   -1.789535   -1.587267
      8          6           0        1.549783    0.894768   -1.587267
      9          8           0        0.000000    2.937140    1.702666
     10          8           0       -2.543638   -1.468570    1.702666
     11          8           0       -2.543638    1.468570   -1.702666
     12          8           0        0.000000   -2.937140   -1.702666
     13          8           0        2.543638    1.468570   -1.702666
     14          8           0        2.543638   -1.468570    1.702666
 ---------------------------------------------------------------------
                    Distance matrix (angstroms):
                    1          2          3          4          5
     1  Ni   0.000000
     2  Ni   2.846789   0.000000
     3  C    1.797023   3.502359   0.000000
     4  C    1.797023   3.502359   3.099566   0.000000
     5  C    1.797023   3.502359   3.099566   3.099566   0.000000
     6  C    3.502359   1.797023   3.644188   4.784080   3.644188
     7  C    3.502359   1.797023   4.784080   3.644188   3.644188
     8  C    3.502359   1.797023   3.644188   3.644188   4.784080
     9  O    2.950387   4.289411   1.153392   4.135053   4.135053
    10  O    2.950387   4.289411   4.135053   4.135053   1.153392
    11  O    4.289411   2.950387   4.170944   5.758917   4.170944
    12  O    4.289411   2.950387   5.758917   4.170944   4.170944
    13  O    4.289411   2.950387   4.170944   4.170944   5.758917
    14  O    2.950387   4.289411   4.135053   1.153392   4.135053
                    6          7          8          9         10
     6  C    0.000000
     7  C    3.099566   0.000000
     8  C    3.099566   3.099566   0.000000
     9  O    4.170944   5.758917   4.170944   0.000000
    10  O    4.170944   4.170944   5.758917   5.087277   0.000000
    11  O    1.153392   4.135053   4.135053   4.497007   4.497007
    12  O    4.135053   1.153392   4.135053   6.789953   4.497007
    13  O    4.135053   4.135053   1.153392   4.497007   6.789953
    14  O    5.758917   4.170944   4.170944   5.087277   5.087277
                   11         12         13         14
    11  O    0.000000
    12  O    5.087277   0.000000
    13  O    5.087277   5.087277   0.000000
    14  O    6.789953   4.497007   4.497007   0.000000
 Stoichiometry    C6Ni2O6(1-,2)
 Framework group  D3D[C3(Ni.Ni),3SGD(C2O2)]
 Deg. of freedom     5
 Full point group                 D3D     NOp  12
 Largest Abelian subgroup         C2H     NOp   4
 Largest concise Abelian subgroup C2H     NOp   4
                         Standard orientation:                         
 ---------------------------------------------------------------------
 Center     Atomic      Atomic             Coordinates (Angstroms)
 Number     Number       Type             X           Y           Z
 ---------------------------------------------------------------------
      1         28           0        0.000000    0.000000    1.423395
      2         28           0        0.000000    0.000000   -1.423395
      3          6           0        0.000000    1.789535    1.587267
      4          6           0        1.549783   -0.894768    1.587267
      5          6           0       -1.549783   -0.894768    1.587267
      6          6           0       -1.549783    0.894768   -1.587267
      7          6           0        0.000000   -1.789535   -1.587267
      8          6           0        1.549783    0.894768   -1.587267
      9          8           0        0.000000    2.937140    1.702666
     10          8           0       -2.543638   -1.468570    1.702666
     11          8           0       -2.543638    1.468570   -1.702666
     12          8           0        0.000000   -2.937140   -1.702666
     13          8           0        2.543638    1.468570   -1.702666
     14          8           0        2.543638   -1.468570    1.702666
 ---------------------------------------------------------------------
 Rotational constants (GHZ):      0.4774553      0.4130187      0.4130187
 Standard basis: 6-311+G(d) (5D, 7F)
 There are   116 symmetry adapted basis functions of AG  symmetry.
 There are    74 symmetry adapted basis functions of BG  symmetry.
 There are    74 symmetry adapted basis functions of AU  symmetry.
 There are   116 symmetry adapted basis functions of BU  symmetry.
 Integral buffers will be    262144 words long.
 Raffenetti 2 integral format.
 Two-electron integral symmetry is turned on.
   380 basis functions,   620 primitive gaussians,   406 cartesian basis functions
    71 alpha electrons       70 beta electrons
       nuclear repulsion energy      1487.4016062870 Hartrees.
 NAtoms=   14 NActive=   14 NUniq=    3 SFac= 3.00D+00 NAtFMM=   80 NAOKFM=F Big=F
 One-electron integrals computed using PRISM.
 NBasis=   380 RedAO= T  NBF=   116    74    74   116
 NBsUse=   380 1.00D-06 NBFU=   116    74    74   116
 Initial guess read from the checkpoint file:  E:\theoretical calculation\Ni2COn-
 \6311+Gd Use\Ni2CO6-_33_D3d_2th_4_big_chk_NBO.chk
 B after Tr=     0.000000    0.000000    0.000000
         Rot=    1.000000    0.000000    0.000000    0.000000 Ang=   0.00 deg.
 Initial guess orbital symmetries:
 Alpha Orbitals:
       Occupied  (A2U) (A1G) (A2U) (A1G) (EG) (EG) (EU) (EU) (A2U)
                 (A1G) (EU) (EU) (EG) (EG) (A2U) (A1G) (A1G) (EU)
                 (EU) (EG) (EG) (A2U) (A1G) (A2U) (EU) (EU) (EG)
                 (EG) (A1G) (A2U) (A1G) (EU) (EU) (A2U) (EG) (EG)
                 (A1G) (A2U) (EU) (EU) (EG) (EG) (A1G) (A2U) (A1G)
                 (EU) (EU) (EG) (EG) (EU) (EU) (EG) (EG) (A2U)
                 (A1U) (A2G) (EU) (EU) (EG) (EG) (EU) (EU) (A1G)
                 (EG) (EG) (EU) (EU) (EG) (EG) (A2U) (A1G)
       Virtual   (A2U) (A1G) (A2U) (EG) (EG) (EU) (EU) (A1U) (EU)
                 (EU) (A2G) (EG) (EG) (EU) (EU) (EG) (EG) (A1G)
                 (EG) (EG) (A1G) (A2U) (EU) (EU) (A2U) (EU) (EU)
                 (A1U) (A2U) (A1G) (EG) (EG) (A2G) (EU) (EU) (EG)
                 (EG) (A1G) (A2U) (A1G) (EG) (EG) (A2U) (EU) (EU)
                 (EG) (EG) (EG) (EG) (EU) (EU) (EU) (EU) (A1G)
                 (A1G) (A2U) (EU) (EU) (EG) (EG) (A2U) (A1G) (A2G)
                 (A1G) (A1U) (A2U) (A2U) (EG) (EG) (EU) (EU) (A1G)
                 (A2U) (EG) (EG) (EU) (EU) (EU) (EU) (EG) (EG)
                 (A1G) (EG) (EG) (EU) (EU) (A1G) (A2U) (EU) (EU)
                 (A1U) (EG) (EG) (A2G) (A2U) (EG) (EG) (EU) (EU)
                 (A2U) (A1G) (EG) (EG) (EU) (EU) (A1G) (A2U) (EG)
                 (EG) (EU) (EU) (EG) (EG) (EU) (EU) (A2U) (A1G)
                 (EG) (EG) (EU) (EU) (EG) (EG) (EU) (EU) (A1G)
                 (A1U) (EU) (EU) (A2G) (A2U) (EG) (EG) (A2U) (A1G)
                 (A2G) (A1U) (EU) (EU) (EG) (EG) (EU) (EU) (A1U)
                 (A2G) (EG) (EG) (A1G) (A1G) (A2U) (EG) (EG) (EU)
                 (EU) (A2U) (EG) (EG) (EU) (EU) (A1G) (EU) (EU)
                 (A2U) (EG) (EG) (A2U) (A1G) (EG) (EG) (EU) (EU)
                 (EG) (EG) (EU) (EU) (A1G) (EU) (EU) (EG) (EG)
                 (A2U) (A2U) (A1G) (A1U) (A2G) (EU) (EU) (A1G)
                 (EG) (EG) (EG) (EG) (EU) (EU) (A1U) (A2G) (EU)
                 (EU) (A2U) (EG) (EG) (A1G) (EU) (EU) (EG) (EG)
                 (A2U) (EU) (EU) (EG) (EG) (A1G) (A2U) (EU) (EU)
                 (EG) (EG) (A1U) (A2G) (A1G) (EU) (EU) (EG) (EG)
                 (A2U) (EU) (EU) (EG) (EG) (A1G) (A2U) (EG) (EG)
                 (EU) (EU) (A1G) (A2U) (A1U) (A2G) (EU) (EU) (EG)
                 (EG) (EU) (EU) (EG) (EG) (A2U) (A1G) (A1G) (A2U)
                 (A1G) (EG) (EG) (EU) (EU) (A1U) (A2G) (EG) (EG)
                 (EU) (EU) (A2U) (EG) (EG) (EU) (EU) (A2U) (A1G)
                 (EG) (EG) (EU) (EU) (A2U) (A1G) (EU) (EU) (EG)
                 (EG) (A1G) (A2U) (EU) (EU) (EG) (EG) (A2U) (A1G)
                 (EU) (EU) (EG) (EG) (A1G) (A2U) (A1G) (A2U) (EU)
                 (EU) (EG) (EG) (A1G) (A2U) (EG) (EG) (EU) (EU)
                 (A1G) (A2U) (A1G) (A2U)
 Beta  Orbitals:
       Occupied  (A2U) (A1G) (A2U) (A1G) (EG) (EG) (EU) (EU) (A2U)
                 (A1G) (EU) (EU) (EG) (EG) (A2U) (A1G) (A1G) (EU)
                 (EU) (EG) (EG) (A2U) (A1G) (A2U) (EU) (EU) (EG)
                 (EG) (A1G) (A2U) (A1G) (EU) (EU) (A2U) (EG) (EG)
                 (A1G) (A2U) (EU) (EU) (EG) (EG) (A1G) (A2U) (EG)
                 (EG) (EU) (EU) (A1G) (EU) (EU) (A1U) (A2G) (EG)
                 (EG) (A2U) (EU) (EU) (EG) (EG) (EU) (EU) (A1G)
                 (EG) (EG) (EU) (EU) (EG) (EG) (A2U)
       Virtual   (A1G) (A2U) (A1G) (A2U) (EG) (EG) (EU) (EU) (A1U)
                 (EU) (EU) (A2G) (EU) (EU) (EG) (EG) (EG) (EG)
                 (A1G) (EG) (EG) (A1G) (A2U) (EU) (EU) (A2U) (EU)
                 (EU) (A1U) (A1G) (A2U) (EG) (EG) (A2G) (EU) (EU)
                 (EG) (EG) (A1G) (A2U) (A1G) (EG) (EG) (A2U) (EU)
                 (EU) (EG) (EG) (EG) (EG) (EU) (EU) (EU) (EU) (A1G)
                 (A1G) (A2U) (EU) (EU) (EG) (EG) (A2U) (A1G) (A2G)
                 (A1U) (A1G) (A2U) (A2U) (EG) (EG) (A1G) (EU) (EU)
                 (A2U) (EG) (EG) (EU) (EU) (EU) (EU) (EG) (EG)
                 (A1G) (EG) (EG) (EU) (EU) (A1G) (A2U) (EU) (EU)
                 (A1U) (EG) (EG) (A2G) (A2U) (EG) (EG) (EU) (EU)
                 (A2U) (A1G) (EG) (EG) (EU) (EU) (A1G) (A2U) (EG)
                 (EG) (EU) (EU) (EG) (EG) (EU) (EU) (A2U) (EG)
                 (EG) (A1G) (EU) (EU) (EU) (EU) (EG) (EG) (A1G)
                 (A1U) (EU) (EU) (A2G) (A2U) (EG) (EG) (A2U) (A1G)
                 (A2G) (A1U) (EU) (EU) (EG) (EG) (A1U) (A2G) (EU)
                 (EU) (EG) (EG) (A1G) (A1G) (A2U) (EG) (EG) (EU)
                 (EU) (A2U) (EG) (EG) (EU) (EU) (A1G) (EU) (EU)
                 (A2U) (EG) (EG) (A2U) (A1G) (EG) (EG) (EU) (EU)
                 (EG) (EG) (EU) (EU) (A1G) (EU) (EU) (EG) (EG)
                 (A2U) (A2U) (A1G) (A1U) (A2G) (EU) (EU) (A1G)
                 (EG) (EG) (EG) (EG) (EU) (EU) (A1U) (A2G) (EU)
                 (EU) (A2U) (EG) (EG) (A1G) (EU) (EU) (EG) (EG)
                 (A2U) (EU) (EU) (EG) (EG) (A1G) (A2U) (EU) (EU)
                 (EG) (EG) (A1U) (A2G) (A1G) (EU) (EU) (EG) (EG)
                 (A2U) (EU) (EU) (EG) (EG) (A1G) (A2U) (EG) (EG)
                 (EU) (EU) (A1G) (A2U) (A1U) (A2G) (EU) (EU) (EG)
                 (EG) (EU) (EU) (EG) (EG) (A2U) (A1G) (A1G) (A2U)
                 (A1G) (A1U) (EG) (EG) (EU) (EU) (A2G) (EG) (EG)
                 (EU) (EU) (A2U) (EG) (EG) (EU) (EU) (A2U) (A1G)
                 (EG) (EG) (EU) (EU) (A2U) (A1G) (EU) (EU) (EG)
                 (EG) (A1G) (A2U) (EU) (EU) (EG) (EG) (A2U) (A1G)
                 (EU) (EU) (EG) (EG) (A1G) (A2U) (A1G) (A2U) (EU)
                 (EU) (EG) (EG) (A1G) (A2U) (EG) (EG) (EU) (EU)
                 (A1G) (A2U) (A1G) (A2U)
 Initial guess <Sx>= 0.0000 <Sy>= 0.0000 <Sz>= 0.5000 <S**2>= 0.7616 S= 0.5058
 Requested convergence on RMS density matrix=1.00D-08 within 128 cycles.
 Requested convergence on MAX density matrix=1.00D-06.
 Requested convergence on             energy=1.00D-06.
 No special actions if energy rises.
 SCF Done:  E(UB3LYP) =  -3697.00065456     A.U. after    6 cycles
             Convg  =    0.6268D-08             -V/T =  2.0013
 <Sx>= 0.0000 <Sy>= 0.0000 <Sz>= 0.5000 <S**2>= 0.7616 S= 0.5058
 <L.S>= 0.000000000000E+00
 Annihilation of the first spin contaminant:
 S**2 before annihilation     0.7616,   after     0.7501

 **********************************************************************

            Population analysis using the SCF density.

 **********************************************************************

 Orbital symmetries:
 Alpha Orbitals:
       Occupied  (A2U) (A1G) (A2U) (A1G) (EG) (EG) (EU) (EU) (A2U)
                 (A1G) (EU) (EU) (EG) (EG) (A2U) (A1G) (A1G) (EU)
                 (EU) (EG) (EG) (A2U) (A1G) (A2U) (EU) (EU) (EG)
                 (EG) (A1G) (A2U) (A1G) (EU) (EU) (A2U) (EG) (EG)
                 (A1G) (A2U) (EU) (EU) (EG) (EG) (A1G) (A2U) (A1G)
                 (EU) (EU) (EG) (EG) (EU) (EU) (EG) (EG) (A2U)
                 (A1U) (A2G) (EU) (EU) (EG) (EG) (EU) (EU) (A1G)
                 (EG) (EG) (EU) (EU) (EG) (EG) (A2U) (A1G)
       Virtual   (A2U) (A1G) (A2U) (EG) (EG) (EU) (EU) (A1U) (EU)
                 (EU) (A2G) (EG) (EG) (EU) (EU) (EG) (EG) (A1G)
                 (EG) (EG) (A1G) (A2U) (EU) (EU) (A2U) (EU) (EU)
                 (A1U) (A2U) (A1G) (EG) (EG) (A2G) (EU) (EU) (EG)
                 (EG) (A1G) (A2U) (A1G) (EG) (EG) (A2U) (EU) (EU)
                 (EG) (EG) (EG) (EG) (EU) (EU) (EU) (EU) (A1G)
                 (A1G) (A2U) (EU) (EU) (EG) (EG) (A2U) (A1G) (A2G)
                 (A1G) (A1U) (A2U) (A2U) (EG) (EG) (EU) (EU) (A1G)
                 (A2U) (EG) (EG) (EU) (EU) (EU) (EU) (EG) (EG)
                 (A1G) (EG) (EG) (EU) (EU) (A1G) (A2U) (EU) (EU)
                 (A1U) (EG) (EG) (A2G) (A2U) (EG) (EG) (EU) (EU)
                 (A2U) (A1G) (EG) (EG) (EU) (EU) (A1G) (A2U) (EG)
                 (EG) (EU) (EU) (EG) (EG) (EU) (EU) (A2U) (A1G)
                 (EG) (EG) (EU) (EU) (EG) (EG) (EU) (EU) (A1G)
                 (A1U) (EU) (EU) (A2G) (A2U) (EG) (EG) (A2U) (A1G)
                 (A2G) (A1U) (EU) (EU) (EG) (EG) (EU) (EU) (A1U)
                 (A2G) (EG) (EG) (A1G) (A1G) (A2U) (EG) (EG) (EU)
                 (EU) (A2U) (EG) (EG) (EU) (EU) (A1G) (EU) (EU)
                 (A2U) (EG) (EG) (A2U) (A1G) (EG) (EG) (EU) (EU)
                 (EG) (EG) (EU) (EU) (A1G) (EU) (EU) (EG) (EG)
                 (A2U) (A2U) (A1G) (A1U) (A2G) (EU) (EU) (A1G)
                 (EG) (EG) (EG) (EG) (EU) (EU) (A1U) (A2G) (EU)
                 (EU) (A2U) (EG) (EG) (A1G) (EU) (EU) (EG) (EG)
                 (A2U) (EU) (EU) (EG) (EG) (A1G) (A2U) (EU) (EU)
                 (EG) (EG) (A1U) (A2G) (A1G) (EU) (EU) (EG) (EG)
                 (A2U) (EU) (EU) (EG) (EG) (A1G) (A2U) (EG) (EG)
                 (EU) (EU) (A1G) (A2U) (A1U) (A2G) (EU) (EU) (EG)
                 (EG) (EU) (EU) (EG) (EG) (A2U) (A1G) (A1G) (A2U)
                 (A1G) (EG) (EG) (EU) (EU) (A1U) (A2G) (EG) (EG)
                 (EU) (EU) (A2U) (EG) (EG) (EU) (EU) (A2U) (A1G)
                 (EG) (EG) (EU) (EU) (A2U) (A1G) (EU) (EU) (EG)
                 (EG) (A1G) (A2U) (EU) (EU) (EG) (EG) (A2U) (A1G)
                 (EU) (EU) (EG) (EG) (A1G) (A2U) (A1G) (A2U) (EU)
                 (EU) (EG) (EG) (A1G) (A2U) (EG) (EG) (EU) (EU)
                 (A1G) (A2U) (A1G) (A2U)
 Beta  Orbitals:
       Occupied  (A2U) (A1G) (A2U) (A1G) (EG) (EG) (EU) (EU) (A2U)
                 (A1G) (EU) (EU) (EG) (EG) (A2U) (A1G) (A1G) (EU)
                 (EU) (EG) (EG) (A2U) (A1G) (A2U) (EU) (EU) (EG)
                 (EG) (A1G) (A2U) (A1G) (EU) (EU) (A2U) (EG) (EG)
                 (A1G) (A2U) (EU) (EU) (EG) (EG) (A1G) (A2U) (EG)
                 (EG) (EU) (EU) (A1G) (EU) (EU) (A1U) (A2G) (EG)
                 (EG) (A2U) (EU) (EU) (EG) (EG) (EU) (EU) (A1G)
                 (EG) (EG) (EU) (EU) (EG) (EG) (A2U)
       Virtual   (A1G) (A2U) (A1G) (A2U) (EG) (EG) (EU) (EU) (A1U)
                 (EU) (EU) (A2G) (EU) (EU) (EG) (EG) (EG) (EG)
                 (A1G) (EG) (EG) (A1G) (A2U) (EU) (EU) (A2U) (EU)
                 (EU) (A1U) (A1G) (A2U) (EG) (EG) (A2G) (EU) (EU)
                 (EG) (EG) (A1G) (A2U) (A1G) (EG) (EG) (A2U) (EU)
                 (EU) (EG) (EG) (EG) (EG) (EU) (EU) (EU) (EU) (A1G)
                 (A1G) (A2U) (EU) (EU) (EG) (EG) (A2U) (A1G) (A2G)
                 (A1U) (A1G) (A2U) (A2U) (EG) (EG) (A1G) (EU) (EU)
                 (A2U) (EG) (EG) (EU) (EU) (EU) (EU) (EG) (EG)
                 (A1G) (EG) (EG) (EU) (EU) (A1G) (A2U) (EU) (EU)
                 (A1U) (EG) (EG) (A2G) (A2U) (EG) (EG) (EU) (EU)
                 (A2U) (A1G) (EG) (EG) (EU) (EU) (A1G) (A2U) (EG)
                 (EG) (EU) (EU) (EG) (EG) (EU) (EU) (A2U) (EG)
                 (EG) (A1G) (EU) (EU) (EU) (EU) (EG) (EG) (A1G)
                 (A1U) (EU) (EU) (A2G) (A2U) (EG) (EG) (A2U) (A1G)
                 (A2G) (A1U) (EU) (EU) (EG) (EG) (A1U) (A2G) (EU)
                 (EU) (EG) (EG) (A1G) (A1G) (A2U) (EG) (EG) (EU)
                 (EU) (A2U) (EG) (EG) (EU) (EU) (A1G) (EU) (EU)
                 (A2U) (EG) (EG) (A2U) (A1G) (EG) (EG) (EU) (EU)
                 (EG) (EG) (EU) (EU) (A1G) (EU) (EU) (EG) (EG)
                 (A2U) (A2U) (A1G) (A1U) (A2G) (EU) (EU) (A1G)
                 (EG) (EG) (EG) (EG) (EU) (EU) (A1U) (A2G) (EU)
                 (EU) (A2U) (EG) (EG) (A1G) (EU) (EU) (EG) (EG)
                 (A2U) (EU) (EU) (EG) (EG) (A1G) (A2U) (EU) (EU)
                 (EG) (EG) (A1U) (A2G) (A1G) (EU) (EU) (EG) (EG)
                 (A2U) (EU) (EU) (EG) (EG) (A1G) (A2U) (EG) (EG)
                 (EU) (EU) (A1G) (A2U) (A1U) (A2G) (EU) (EU) (EG)
                 (EG) (EU) (EU) (EG) (EG) (A2U) (A1G) (A1G) (A2U)
                 (A1G) (A1U) (EG) (EG) (EU) (EU) (A2G) (EG) (EG)
                 (EU) (EU) (A2U) (EG) (EG) (EU) (EU) (A2U) (A1G)
                 (EG) (EG) (EU) (EU) (A2U) (A1G) (EU) (EU) (EG)
                 (EG) (A1G) (A2U) (EU) (EU) (EG) (EG) (A2U) (A1G)
                 (EU) (EU) (EG) (EG) (A1G) (A2U) (A1G) (A2U) (EU)
                 (EU) (EG) (EG) (A1G) (A2U) (EG) (EG) (EU) (EU)
                 (A1G) (A2U) (A1G) (A2U)
 The electronic state is 2-A1G.
 Alpha  occ. eigenvalues -- -299.67975-299.67975 -35.60928 -35.60928 -31.05652
 Alpha  occ. eigenvalues --  -31.05652 -31.05652 -31.05652 -31.04554 -31.04554
 Alpha  occ. eigenvalues --  -19.07139 -19.07139 -19.07138 -19.07138 -19.07138
 Alpha  occ. eigenvalues --  -19.07138 -10.15183 -10.15182 -10.15182 -10.15182
 Alpha  occ. eigenvalues --  -10.15182 -10.15182  -3.86788  -3.86783  -2.46571
 Alpha  occ. eigenvalues --   -2.46571  -2.46569  -2.46569  -2.44261  -2.44208
 Alpha  occ. eigenvalues --   -1.00626  -1.00605  -1.00605  -1.00601  -1.00592
 Alpha  occ. eigenvalues --   -1.00592  -0.45462  -0.44872  -0.43895  -0.43895
 Alpha  occ. eigenvalues --   -0.43765  -0.43765  -0.35466  -0.34508  -0.33340
 Alpha  occ. eigenvalues --   -0.33290  -0.33290  -0.33236  -0.33236  -0.32876
 Alpha  occ. eigenvalues --   -0.32876  -0.32742  -0.32742  -0.32643  -0.32377
 Alpha  occ. eigenvalues --   -0.32186  -0.31106  -0.31106  -0.30656  -0.30656
 Alpha  occ. eigenvalues --   -0.14519  -0.14519  -0.13748  -0.13502  -0.13502
 Alpha  occ. eigenvalues --   -0.12097  -0.12097  -0.10511  -0.10511  -0.10324
 Alpha  occ. eigenvalues --   -0.02797
 Alpha virt. eigenvalues --    0.06996   0.08745   0.09159   0.10356   0.10356
 Alpha virt. eigenvalues --    0.10533   0.10533   0.11416   0.11656   0.11656
 Alpha virt. eigenvalues --    0.12006   0.12037   0.12037   0.12849   0.12849
 Alpha virt. eigenvalues --    0.14719   0.14719   0.15688   0.15841   0.15841
 Alpha virt. eigenvalues --    0.17364   0.17550   0.18232   0.18232   0.18527
 Alpha virt. eigenvalues --    0.20781   0.20781   0.21622   0.22037   0.22132
 Alpha virt. eigenvalues --    0.23624   0.23624   0.24188   0.26270   0.26270
 Alpha virt. eigenvalues --    0.26747   0.26747   0.27236   0.27664   0.28405
 Alpha virt. eigenvalues --    0.33195   0.33195   0.34457   0.35658   0.35658
 Alpha virt. eigenvalues --    0.36391   0.36391   0.37087   0.37087   0.37460
 Alpha virt. eigenvalues --    0.37460   0.38064   0.38064   0.38388   0.39797
 Alpha virt. eigenvalues --    0.40262   0.40881   0.40881   0.42257   0.42257
 Alpha virt. eigenvalues --    0.43048   0.43144   0.44393   0.45151   0.45425
 Alpha virt. eigenvalues --    0.45598   0.47575   0.47862   0.47862   0.48809
 Alpha virt. eigenvalues --    0.48809   0.48920   0.51475   0.53523   0.53523
 Alpha virt. eigenvalues --    0.53892   0.53892   0.58235   0.58235   0.62203
 Alpha virt. eigenvalues --    0.62203   0.64960   0.68126   0.68126   0.68355
 Alpha virt. eigenvalues --    0.68355   0.71944   0.72138   0.73895   0.73895
 Alpha virt. eigenvalues --    0.74445   0.77154   0.77154   0.80969   0.81155
 Alpha virt. eigenvalues --    0.81924   0.81924   0.82656   0.82656   0.84350
 Alpha virt. eigenvalues --    0.87857   0.91473   0.91473   0.93335   0.93335
 Alpha virt. eigenvalues --    0.95547   0.97051   0.98076   0.98076   1.01783
 Alpha virt. eigenvalues --    1.01783   1.05964   1.05964   1.10543   1.10543
 Alpha virt. eigenvalues --    1.16516   1.22121   1.22168   1.22168   1.23568
 Alpha virt. eigenvalues --    1.23568   1.25257   1.25257   1.25317   1.25317
 Alpha virt. eigenvalues --    1.26541   1.26743   1.27752   1.27752   1.28166
 Alpha virt. eigenvalues --    1.29501   1.29926   1.29926   1.32738   1.33866
 Alpha virt. eigenvalues --    1.39696   1.40046   1.42252   1.42252   1.44168
 Alpha virt. eigenvalues --    1.44168   1.46881   1.46881   1.46977   1.47187
 Alpha virt. eigenvalues --    1.51188   1.51188   1.51415   1.56887   1.57901
 Alpha virt. eigenvalues --    1.59081   1.59081   1.62303   1.62303   1.67426
 Alpha virt. eigenvalues --    1.68137   1.68137   1.70770   1.70770   1.74755
 Alpha virt. eigenvalues --    1.77252   1.77252   1.77771   1.81185   1.81185
 Alpha virt. eigenvalues --    1.89262   1.93097   1.95670   1.95670   1.98356
 Alpha virt. eigenvalues --    1.98356   2.01155   2.01155   2.02165   2.02165
 Alpha virt. eigenvalues --    2.12626   2.23294   2.23294   2.38030   2.38030
 Alpha virt. eigenvalues --    2.44061   2.55057   2.60948   2.74614   2.79497
 Alpha virt. eigenvalues --    2.81038   2.81038   2.81475   2.84316   2.84316
 Alpha virt. eigenvalues --    2.87755   2.87755   2.91143   2.91143   2.92107
 Alpha virt. eigenvalues --    2.92113   2.92309   2.92309   2.92408   2.92927
 Alpha virt. eigenvalues --    2.92927   2.93014   2.93053   2.93053   2.93282
 Alpha virt. eigenvalues --    2.93282   2.95812   3.00567   3.00567   3.01124
 Alpha virt. eigenvalues --    3.01124   3.27793   3.31238   3.34710   3.34710
 Alpha virt. eigenvalues --    3.35394   3.35394   3.45208   3.45408   3.47382
 Alpha virt. eigenvalues --    3.47997   3.47997   3.48137   3.48137   3.48661
 Alpha virt. eigenvalues --    3.54210   3.54210   3.54439   3.54439   3.79695
 Alpha virt. eigenvalues --    3.80631   3.82097   3.82097   3.82182   3.82182
 Alpha virt. eigenvalues --    3.83041   3.84453   3.90292   3.90369   3.90806
 Alpha virt. eigenvalues --    3.90806   3.93765   3.93765   4.09938   4.09938
 Alpha virt. eigenvalues --    4.13484   4.13484   4.14262   4.15995   4.47519
 Alpha virt. eigenvalues --    4.47844   5.12708   5.14430   5.14430   5.14509
 Alpha virt. eigenvalues --    5.14509   5.14588   5.16093   5.17124   5.17124
 Alpha virt. eigenvalues --    5.18958   5.18958   5.20313   5.76925   5.76925
 Alpha virt. eigenvalues --    5.77485   5.77485   5.79123   5.80952   6.99998
 Alpha virt. eigenvalues --    6.99998   7.03006   7.03006   7.07841   7.13756
 Alpha virt. eigenvalues --    7.24499   7.24499   7.25460   7.25460   9.00205
 Alpha virt. eigenvalues --    9.18461   9.33863   9.33863   9.46283   9.46283
 Alpha virt. eigenvalues --   23.99773  23.99933  24.01898  24.01898  24.02005
 Alpha virt. eigenvalues --   24.02005  30.16421  30.19517  36.48985  36.65576
 Alpha virt. eigenvalues --   36.74051  36.74051  36.85405  36.85405  50.11183
 Alpha virt. eigenvalues --   50.13341  50.13769  50.13769  50.15633  50.15633
 Alpha virt. eigenvalues --  162.54090 162.56633 845.25283 845.27877
  Beta  occ. eigenvalues -- -299.67952-299.67952 -35.61197 -35.61197 -31.05854
  Beta  occ. eigenvalues --  -31.05854 -31.05854 -31.05854 -31.04765 -31.04764
  Beta  occ. eigenvalues --  -19.06974 -19.06974 -19.06974 -19.06974 -19.06974
  Beta  occ. eigenvalues --  -19.06974 -10.15104 -10.15104 -10.15104 -10.15104
  Beta  occ. eigenvalues --  -10.15104 -10.15104  -3.87313  -3.87309  -2.47109
  Beta  occ. eigenvalues --   -2.47109  -2.47107  -2.47107  -2.44824  -2.44773
  Beta  occ. eigenvalues --   -1.00349  -1.00328  -1.00328  -1.00324  -1.00316
  Beta  occ. eigenvalues --   -1.00316  -0.44984  -0.44454  -0.43537  -0.43537
  Beta  occ. eigenvalues --   -0.43419  -0.43419  -0.35084  -0.34148  -0.32988
  Beta  occ. eigenvalues --   -0.32988  -0.32831  -0.32831  -0.32438  -0.32349
  Beta  occ. eigenvalues --   -0.32349  -0.32213  -0.32021  -0.32000  -0.32000
  Beta  occ. eigenvalues --   -0.31833  -0.30823  -0.30823  -0.30407  -0.30407
  Beta  occ. eigenvalues --   -0.14728  -0.14728  -0.13895  -0.13838  -0.13838
  Beta  occ. eigenvalues --   -0.12244  -0.12244  -0.10775  -0.10775  -0.10442
  Beta virt. eigenvalues --    0.02009   0.08153   0.08775   0.09411   0.10462
  Beta virt. eigenvalues --    0.10462   0.11305   0.11305   0.11651   0.12075
  Beta virt. eigenvalues --    0.12075   0.12231   0.12896   0.12896   0.13107
  Beta virt. eigenvalues --    0.13107   0.14699   0.14699   0.15759   0.15819
  Beta virt. eigenvalues --    0.15819   0.17449   0.17570   0.18218   0.18218
  Beta virt. eigenvalues --    0.18677   0.20811   0.20811   0.21588   0.22128
  Beta virt. eigenvalues --    0.22149   0.23584   0.23584   0.24113   0.26290
  Beta virt. eigenvalues --    0.26290   0.26839   0.26839   0.27726   0.27752
  Beta virt. eigenvalues --    0.29502   0.33268   0.33268   0.34890   0.35781
  Beta virt. eigenvalues --    0.35781   0.36418   0.36418   0.37165   0.37165
  Beta virt. eigenvalues --    0.37520   0.37520   0.38122   0.38122   0.38557
  Beta virt. eigenvalues --    0.39991   0.40343   0.40913   0.40913   0.42263
  Beta virt. eigenvalues --    0.42263   0.43160   0.43231   0.44379   0.45408
  Beta virt. eigenvalues --    0.45641   0.45879   0.47734   0.48018   0.48018
  Beta virt. eigenvalues --    0.49025   0.49232   0.49232   0.51875   0.53784
  Beta virt. eigenvalues --    0.53784   0.54314   0.54314   0.58655   0.58655
  Beta virt. eigenvalues --    0.62636   0.62636   0.65497   0.68283   0.68283
  Beta virt. eigenvalues --    0.68481   0.68481   0.72390   0.72728   0.74340
  Beta virt. eigenvalues --    0.74340   0.74569   0.77618   0.77618   0.81020
  Beta virt. eigenvalues --    0.81412   0.81999   0.81999   0.82770   0.82770
  Beta virt. eigenvalues --    0.84552   0.87975   0.91580   0.91580   0.93685
  Beta virt. eigenvalues --    0.93685   0.95818   0.97216   0.98602   0.98602
  Beta virt. eigenvalues --    1.01900   1.01900   1.06182   1.06182   1.10826
  Beta virt. eigenvalues --    1.10826   1.16933   1.22306   1.22306   1.22464
  Beta virt. eigenvalues --    1.23835   1.23835   1.25480   1.25480   1.25603
  Beta virt. eigenvalues --    1.25603   1.26656   1.26825   1.27880   1.27880
  Beta virt. eigenvalues --    1.28251   1.29632   1.30037   1.30037   1.33090
  Beta virt. eigenvalues --    1.34128   1.40149   1.40500   1.42700   1.42700
  Beta virt. eigenvalues --    1.44618   1.44618   1.47061   1.47271   1.47308
  Beta virt. eigenvalues --    1.47308   1.51526   1.51526   1.51768   1.57464
  Beta virt. eigenvalues --    1.58309   1.59517   1.59517   1.62835   1.62835
  Beta virt. eigenvalues --    1.67844   1.68304   1.68304   1.70919   1.70919
  Beta virt. eigenvalues --    1.74938   1.77319   1.77319   1.77908   1.81330
  Beta virt. eigenvalues --    1.81330   1.89410   1.93298   1.95859   1.95859
  Beta virt. eigenvalues --    1.98555   1.98555   2.01238   2.01238   2.02297
  Beta virt. eigenvalues --    2.02297   2.13041   2.23445   2.23445   2.38151
  Beta virt. eigenvalues --    2.38151   2.44279   2.55278   2.61159   2.74704
  Beta virt. eigenvalues --    2.79574   2.81517   2.81517   2.82004   2.84727
  Beta virt. eigenvalues --    2.84727   2.88021   2.88021   2.91344   2.91344
  Beta virt. eigenvalues --    2.92606   2.92611   2.92805   2.92805   2.92920
  Beta virt. eigenvalues --    2.93416   2.93416   2.93504   2.93519   2.93519
  Beta virt. eigenvalues --    2.93753   2.93753   2.96329   3.00686   3.00686
  Beta virt. eigenvalues --    3.01271   3.01271   3.27926   3.31398   3.34822
  Beta virt. eigenvalues --    3.34822   3.35510   3.35510   3.45272   3.45473
  Beta virt. eigenvalues --    3.47768   3.48359   3.48359   3.48487   3.48487
  Beta virt. eigenvalues --    3.49045   3.54315   3.54315   3.54555   3.54555
  Beta virt. eigenvalues --    3.79784   3.80544   3.81997   3.81997   3.82075
  Beta virt. eigenvalues --    3.82075   3.82936   3.84521   3.90141   3.90217
  Beta virt. eigenvalues --    3.90988   3.90988   3.93962   3.93962   4.09837
  Beta virt. eigenvalues --    4.09837   4.13371   4.13371   4.14244   4.15993
  Beta virt. eigenvalues --    4.47430   4.47762   5.13351   5.14747   5.14928
  Beta virt. eigenvalues --    5.14928   5.15145   5.15145   5.16251   5.17430
  Beta virt. eigenvalues --    5.17430   5.19124   5.19124   5.20946   5.77080
  Beta virt. eigenvalues --    5.77080   5.77638   5.77638   5.79274   5.81101
  Beta virt. eigenvalues --    6.99673   6.99673   7.02690   7.02690   7.07534
  Beta virt. eigenvalues --    7.13449   7.24219   7.24219   7.25187   7.25187
  Beta virt. eigenvalues --    8.99978   9.18205   9.33599   9.33599   9.46013
  Beta virt. eigenvalues --    9.46013  23.99863  24.00023  24.01987  24.01987
  Beta virt. eigenvalues --   24.02093  24.02093  30.16085  30.19181  36.48709
  Beta virt. eigenvalues --   36.65298  36.73779  36.73779  36.85131  36.85131
  Beta virt. eigenvalues --   50.11346  50.13504  50.13932  50.13932  50.15796
  Beta virt. eigenvalues --   50.15796 162.53965 162.56508 845.25270 845.27864
          Condensed to atoms (all electrons):
              1          2          3          4          5          6
     1  Ni  27.761489  -0.202954  -0.247988  -0.247988  -0.247988   0.085257
     2  Ni  -0.202954  27.761489   0.085257   0.085257   0.085257  -0.247988
     3  C   -0.247988   0.085257   6.709374  -0.087507  -0.087507   0.020795
     4  C   -0.247988   0.085257  -0.087507   6.709374  -0.087507  -0.135671
     5  C   -0.247988   0.085257  -0.087507  -0.087507   6.709374   0.020795
     6  C    0.085257  -0.247988   0.020795  -0.135671   0.020795   6.709374
     7  C    0.085257  -0.247988  -0.135671   0.020795   0.020795  -0.087507
     8  C    0.085257  -0.247988   0.020795   0.020795  -0.135671  -0.087507
     9  O    0.031920   0.007152   0.037185   0.006433   0.006433  -0.006993
    10  O    0.031920   0.007152   0.006433   0.006433   0.037185  -0.006993
    11  O    0.007152   0.031920  -0.006993   0.005562  -0.006993   0.037185
    12  O    0.007152   0.031920   0.005562  -0.006993  -0.006993   0.006433
    13  O    0.007152   0.031920  -0.006993  -0.006993   0.005562   0.006433
    14  O    0.031920   0.007152   0.006433   0.037185   0.006433   0.005562
              7          8          9         10         11         12
     1  Ni   0.085257   0.085257   0.031920   0.031920   0.007152   0.007152
     2  Ni  -0.247988  -0.247988   0.007152   0.007152   0.031920   0.031920
     3  C   -0.135671   0.020795   0.037185   0.006433  -0.006993   0.005562
     4  C    0.020795   0.020795   0.006433   0.006433   0.005562  -0.006993
     5  C    0.020795  -0.135671   0.006433   0.037185  -0.006993  -0.006993
     6  C   -0.087507  -0.087507  -0.006993  -0.006993   0.037185   0.006433
     7  C    6.709374  -0.087507   0.005562  -0.006993   0.006433   0.037185
     8  C   -0.087507   6.709374  -0.006993   0.005562   0.006433   0.006433
     9  O    0.005562  -0.006993   8.037022   0.000469  -0.000164  -0.000024
    10  O   -0.006993   0.005562   0.000469   8.037022  -0.000164  -0.000164
    11  O    0.006433   0.006433  -0.000164  -0.000164   8.037022   0.000469
    12  O    0.037185   0.006433  -0.000024  -0.000164   0.000469   8.037022
    13  O    0.006433   0.037185  -0.000164  -0.000024   0.000469   0.000469
    14  O   -0.006993  -0.006993   0.000469   0.000469  -0.000024  -0.000164
             13         14
     1  Ni   0.007152   0.031920
     2  Ni   0.031920   0.007152
     3  C   -0.006993   0.006433
     4  C   -0.006993   0.037185
     5  C    0.005562   0.006433
     6  C    0.006433   0.005562
     7  C    0.006433  -0.006993
     8  C    0.037185  -0.006993
     9  O   -0.000164   0.000469
    10  O   -0.000024   0.000469
    11  O    0.000469  -0.000024
    12  O    0.000469  -0.000164
    13  O    8.037022  -0.000164
    14  O   -0.000164   8.037022
 Mulliken atomic charges:
              1
     1  Ni   0.812441
     2  Ni   0.812441
     3  C   -0.319174
     4  C   -0.319174
     5  C   -0.319174
     6  C   -0.319174
     7  C   -0.319174
     8  C   -0.319174
     9  O   -0.118306
    10  O   -0.118306
    11  O   -0.118306
    12  O   -0.118306
    13  O   -0.118306
    14  O   -0.118306
 Sum of Mulliken atomic charges =  -1.00000
 Mulliken charges with hydrogens summed into heavy atoms:
              1
     1  Ni   0.812441
     2  Ni   0.812441
     3  C   -0.319174
     4  C   -0.319174
     5  C   -0.319174
     6  C   -0.319174
     7  C   -0.319174
     8  C   -0.319174
     9  O   -0.118306
    10  O   -0.118306
    11  O   -0.118306
    12  O   -0.118306
    13  O   -0.118306
    14  O   -0.118306
 Sum of Mulliken charges with hydrogens summed into heavy atoms =  -1.00000
          Atomic-Atomic Spin Densities.
              1          2          3          4          5          6
     1  Ni  -0.002445   0.013067   0.037260   0.037260   0.037260   0.016342
     2  Ni   0.013067  -0.002445   0.016342   0.016342   0.016342   0.037260
     3  C    0.037260   0.016342   0.022185   0.024809   0.024809  -0.011004
     4  C    0.037260   0.016342   0.024809   0.022185   0.024809   0.009198
     5  C    0.037260   0.016342   0.024809   0.024809   0.022185  -0.011004
     6  C    0.016342   0.037260  -0.011004   0.009198  -0.011004   0.022185
     7  C    0.016342   0.037260   0.009198  -0.011004  -0.011004   0.024809
     8  C    0.016342   0.037260  -0.011004  -0.011004   0.009198   0.024809
     9  O   -0.009969  -0.002336  -0.035653  -0.001099  -0.001099   0.000174
    10  O   -0.009969  -0.002336  -0.001099  -0.001099  -0.035653   0.000174
    11  O   -0.002336  -0.009969   0.000174  -0.000148   0.000174  -0.035653
    12  O   -0.002336  -0.009969  -0.000148   0.000174   0.000174  -0.001099
    13  O   -0.002336  -0.009969   0.000174   0.000174  -0.000148  -0.001099
    14  O   -0.009969  -0.002336  -0.001099  -0.035653  -0.001099  -0.000148
              7          8          9         10         11         12
     1  Ni   0.016342   0.016342  -0.009969  -0.009969  -0.002336  -0.002336
     2  Ni   0.037260   0.037260  -0.002336  -0.002336  -0.009969  -0.009969
     3  C    0.009198  -0.011004  -0.035653  -0.001099   0.000174  -0.000148
     4  C   -0.011004  -0.011004  -0.001099  -0.001099  -0.000148   0.000174
     5  C   -0.011004   0.009198  -0.001099  -0.035653   0.000174   0.000174
     6  C    0.024809   0.024809   0.000174   0.000174  -0.035653  -0.001099
     7  C    0.022185   0.024809  -0.000148   0.000174  -0.001099  -0.035653
     8  C    0.024809   0.022185   0.000174  -0.000148  -0.001099  -0.001099
     9  O   -0.000148   0.000174   0.095820   0.000104   0.000410  -0.000002
    10  O    0.000174  -0.000148   0.000104   0.095820   0.000410   0.000410
    11  O   -0.001099  -0.001099   0.000410   0.000410   0.095820   0.000104
    12  O   -0.035653  -0.001099  -0.000002   0.000410   0.000104   0.095820
    13  O   -0.001099  -0.035653   0.000410  -0.000002   0.000104   0.000104
    14  O    0.000174   0.000174   0.000104   0.000104  -0.000002   0.000410
             13         14
     1  Ni  -0.002336  -0.009969
     2  Ni  -0.009969  -0.002336
     3  C    0.000174  -0.001099
     4  C    0.000174  -0.035653
     5  C   -0.000148  -0.001099
     6  C   -0.001099  -0.000148
     7  C   -0.001099   0.000174
     8  C   -0.035653   0.000174
     9  O    0.000410   0.000104
    10  O   -0.000002   0.000104
    11  O    0.000104  -0.000002
    12  O    0.000104   0.000410
    13  O    0.095820   0.000410
    14  O    0.000410   0.095820
 Mulliken atomic spin densities:
              1
     1  Ni   0.134513
     2  Ni   0.134513
     3  C    0.074942
     4  C    0.074942
     5  C    0.074942
     6  C    0.074942
     7  C    0.074942
     8  C    0.074942
     9  O    0.046887
    10  O    0.046887
    11  O    0.046887
    12  O    0.046887
    13  O    0.046887
    14  O    0.046887
 Sum of Mulliken atomic spin densities =   1.00000
 Electronic spatial extent (au):  <R**2>=           3373.9243
 Charge=             -1.0000 electrons
 Dipole moment (field-independent basis, Debye):
    X=              0.0000    Y=              0.0000    Z=              0.0000  Tot=              0.0000
 Quadrupole moment (field-independent basis, Debye-Ang):
   XX=           -116.9384   YY=           -116.9384   ZZ=           -112.4720
   XY=              0.0000   XZ=              0.0000   YZ=              0.0000
 Traceless Quadrupole moment (field-independent basis, Debye-Ang):
   XX=             -1.4888   YY=             -1.4888   ZZ=              2.9776
   XY=              0.0000   XZ=              0.0000   YZ=              0.0000
 Octapole moment (field-independent basis, Debye-Ang**2):
  XXX=              0.0000  YYY=              0.0000  ZZZ=              0.0000  XYY=              0.0000
  XXY=              0.0000  XXZ=              0.0000  XZZ=              0.0000  YZZ=              0.0000
  YYZ=              0.0000  XYZ=              0.0000
 Hexadecapole moment (field-independent basis, Debye-Ang**3):
 XXXX=          -1468.1833 YYYY=          -1468.1833 ZZZZ=          -1619.4256 XXXY=              0.0000
 XXXZ=              0.0000 YYYX=              0.0000 YYYZ=            -75.0345 ZZZX=              0.0000
 ZZZY=              0.0000 XXYY=           -489.3944 XXZZ=           -539.2809 YYZZ=           -539.2809
 XXYZ=             75.0345 YYXZ=              0.0000 ZZXY=              0.0000
 N-N= 1.487401606287D+03 E-N=-1.768798140773D+04  KE= 5.538689016449D+03
 Symmetry AG   KE= 2.298977511548D+03
 Symmetry BG   KE= 4.726188487041D+02
 Symmetry AU   KE= 4.701717221833D+02
 Symmetry BU   KE= 2.296920934013D+03
                          Isotropic Fermi Contact Couplings
        Atom                 a.u.       MegaHertz       Gauss      10(-4) cm-1
     1  Ni(61)             0.01323      -5.29464      -1.88926      -1.76610
     2  Ni(61)             0.01323      -5.29464      -1.88926      -1.76610
     3  C(13)             -0.00610      -6.85240      -2.44511      -2.28571
     4  C(13)             -0.00610      -6.85240      -2.44511      -2.28571
     5  C(13)             -0.00610      -6.85240      -2.44511      -2.28571
     6  C(13)             -0.00610      -6.85240      -2.44511      -2.28571
     7  C(13)             -0.00610      -6.85240      -2.44511      -2.28571
     8  C(13)             -0.00610      -6.85240      -2.44511      -2.28571
     9  O(17)              0.00421      -2.55019      -0.90997      -0.85065
    10  O(17)              0.00421      -2.55019      -0.90997      -0.85065
    11  O(17)              0.00421      -2.55019      -0.90997      -0.85065
    12  O(17)              0.00421      -2.55019      -0.90997      -0.85065
    13  O(17)              0.00421      -2.55019      -0.90997      -0.85065
    14  O(17)              0.00421      -2.55019      -0.90997      -0.85065
 --------------------------------------------------------
       Center         ----  Spin Dipole Couplings  ----
                      3XX-RR        3YY-RR        3ZZ-RR
 --------------------------------------------------------
     1   Atom       -0.271457     -0.271457      0.542914
     2   Atom       -0.271457     -0.271457      0.542914
     3   Atom       -0.038952     -0.033923      0.072875
     4   Atom       -0.035180     -0.037695      0.072875
     5   Atom       -0.035180     -0.037695      0.072875
     6   Atom       -0.035180     -0.037695      0.072875
     7   Atom       -0.038952     -0.033923      0.072875
     8   Atom       -0.035180     -0.037695      0.072875
     9   Atom       -0.109996     -0.123240      0.233236
    10   Atom       -0.119929     -0.113307      0.233236
    11   Atom       -0.119929     -0.113307      0.233236
    12   Atom       -0.109996     -0.123240      0.233236
    13   Atom       -0.119929     -0.113307      0.233236
    14   Atom       -0.119929     -0.113307      0.233236
 --------------------------------------------------------
                        XY            XZ            YZ
 --------------------------------------------------------
     1   Atom        0.000000      0.000000      0.000000
     2   Atom        0.000000      0.000000      0.000000
     3   Atom        0.000000      0.000000     -0.028867
     4   Atom       -0.002178     -0.024999      0.014433
     5   Atom        0.002178      0.024999      0.014433
     6   Atom       -0.002178     -0.024999      0.014433
     7   Atom        0.000000      0.000000     -0.028867
     8   Atom        0.002178      0.024999      0.014433
     9   Atom        0.000000      0.000000     -0.055601
    10   Atom       -0.005735      0.048152      0.027800
    11   Atom        0.005735     -0.048152      0.027800
    12   Atom        0.000000      0.000000     -0.055601
    13   Atom       -0.005735      0.048152      0.027800
    14   Atom        0.005735     -0.048152      0.027800
 --------------------------------------------------------


 ---------------------------------------------------------------------------------
              Anisotropic Spin Dipole Couplings in Principal Axis System
 ---------------------------------------------------------------------------------

       Atom             a.u.   MegaHertz   Gauss  10(-4) cm-1        Axes

              Baa    -0.2715    12.965     4.626     4.325 -0.0009  1.0000  0.0000
     1 Ni(61) Bbb    -0.2715    12.965     4.626     4.325  1.0000  0.0009  0.0000
              Bcc     0.5429   -25.931    -9.253    -8.650  0.0000  0.0000  1.0000
 
              Baa    -0.2715    12.965     4.626     4.325 -0.0013  1.0000  0.0000
     2 Ni(61) Bbb    -0.2715    12.965     4.626     4.325  1.0000  0.0013  0.0000
              Bcc     0.5429   -25.931    -9.253    -8.650  0.0000  0.0000  1.0000
 
              Baa    -0.0412    -5.532    -1.974    -1.845  0.0000  0.9695  0.2453
     3 C(13)  Bbb    -0.0390    -5.227    -1.865    -1.744  1.0000  0.0000  0.0000
              Bcc     0.0802    10.759     3.839     3.589  0.0000 -0.2453  0.9695
 
              Baa    -0.0412    -5.532    -1.974    -1.845  0.8396 -0.4847  0.2453
     4 C(13)  Bbb    -0.0390    -5.227    -1.865    -1.744  0.5000  0.8660  0.0000
              Bcc     0.0802    10.759     3.839     3.589 -0.2124  0.1226  0.9695
 
              Baa    -0.0412    -5.532    -1.974    -1.845  0.8396  0.4847 -0.2453
     5 C(13)  Bbb    -0.0390    -5.227    -1.865    -1.744 -0.5000  0.8660  0.0000
              Bcc     0.0802    10.759     3.839     3.589  0.2124  0.1226  0.9695
 
              Baa    -0.0412    -5.532    -1.974    -1.845  0.8396 -0.4847  0.2453
     6 C(13)  Bbb    -0.0390    -5.227    -1.865    -1.744  0.5000  0.8660  0.0000
              Bcc     0.0802    10.759     3.839     3.589 -0.2124  0.1226  0.9695
 
              Baa    -0.0412    -5.532    -1.974    -1.845  0.0000  0.9695  0.2453
     7 C(13)  Bbb    -0.0390    -5.227    -1.865    -1.744  1.0000  0.0000  0.0000
              Bcc     0.0802    10.759     3.839     3.589  0.0000 -0.2453  0.9695
 
              Baa    -0.0412    -5.532    -1.974    -1.845  0.8396  0.4847 -0.2453
     8 C(13)  Bbb    -0.0390    -5.227    -1.865    -1.744 -0.5000  0.8660  0.0000
              Bcc     0.0802    10.759     3.839     3.589  0.2124  0.1226  0.9695
 
              Baa    -0.1317     9.531     3.401     3.179  0.0000  0.9886  0.1506
     9 O(17)  Bbb    -0.1100     7.959     2.840     2.655  1.0000  0.0000  0.0000
              Bcc     0.2417   -17.490    -6.241    -5.834  0.0000 -0.1506  0.9886
 
              Baa    -0.1317     9.531     3.401     3.179  0.8561  0.4943 -0.1506
    10 O(17)  Bbb    -0.1100     7.959     2.840     2.655 -0.5000  0.8660  0.0000
              Bcc     0.2417   -17.490    -6.241    -5.834  0.1304  0.0753  0.9886
 
              Baa    -0.1317     9.531     3.401     3.179  0.8561 -0.4943  0.1506
    11 O(17)  Bbb    -0.1100     7.959     2.840     2.655  0.5000  0.8660  0.0000
              Bcc     0.2417   -17.490    -6.241    -5.834 -0.1304  0.0753  0.9886
 
              Baa    -0.1317     9.531     3.401     3.179  0.0000  0.9886  0.1506
    12 O(17)  Bbb    -0.1100     7.959     2.840     2.655  1.0000  0.0000  0.0000
              Bcc     0.2417   -17.490    -6.241    -5.834  0.0000 -0.1506  0.9886
 
              Baa    -0.1317     9.531     3.401     3.179  0.8561  0.4943 -0.1506
    13 O(17)  Bbb    -0.1100     7.959     2.840     2.655 -0.5000  0.8660  0.0000
              Bcc     0.2417   -17.490    -6.241    -5.834  0.1304  0.0753  0.9886
 
              Baa    -0.1317     9.531     3.401     3.179  0.8561 -0.4943  0.1506
    14 O(17)  Bbb    -0.1100     7.959     2.840     2.655  0.5000  0.8660  0.0000
              Bcc     0.2417   -17.490    -6.241    -5.834 -0.1304  0.0753  0.9886
 

 ---------------------------------------------------------------------------------

 ******************************Gaussian NBO Version 3.1******************************
             N A T U R A L   A T O M I C   O R B I T A L   A N D
          N A T U R A L   B O N D   O R B I T A L   A N A L Y S I S
 ******************************Gaussian NBO Version 3.1******************************

       /RESON  / : Allow strongly delocalized NBO set
       /BNDIDX / : Print bond indices based on the NAO density matrix

 Analyzing the SCF density

 Job title: from Ni2CO6-_33_D3d_2th_2                                       

 Storage needed:    435110 in NPA,    578994 in NBO (  52428180 available)


 NATURAL POPULATIONS:  Natural atomic orbital occupancies 
                                                          
   NAO  Atom  No  lang   Type(AO)    Occupancy
 --------------------------------------------
     1   Ni    1  S      Cor( 1S)     2.00000
     2   Ni    1  S      Cor( 2S)     2.00000
     3   Ni    1  S      Cor( 3S)     1.99243
     4   Ni    1  S      Val( 4S)     0.47989
     5   Ni    1  S      Ryd( 5S)     0.00206
     6   Ni    1  S      Ryd( 6S)     0.00026
     7   Ni    1  S      Ryd( 7S)     0.00005
     8   Ni    1  S      Ryd( 8S)     0.00000
     9   Ni    1  S      Ryd(10S)     0.00000
    10   Ni    1  S      Ryd( 9S)     0.00000
    11   Ni    1  px     Cor( 2p)     2.00000
    12   Ni    1  px     Cor( 3p)     1.99790
    13   Ni    1  px     Val( 4p)     0.44957
    14   Ni    1  px     Ryd( 5p)     0.00045
    15   Ni    1  px     Ryd( 6p)     0.00021
    16   Ni    1  px     Ryd( 7p)     0.00001
    17   Ni    1  px     Ryd( 8p)     0.00000
    18   Ni    1  py     Cor( 2p)     2.00000
    19   Ni    1  py     Cor( 3p)     1.99790
    20   Ni    1  py     Val( 4p)     0.44957
    21   Ni    1  py     Ryd( 5p)     0.00045
    22   Ni    1  py     Ryd( 6p)     0.00021
    23   Ni    1  py     Ryd( 7p)     0.00001
    24   Ni    1  py     Ryd( 8p)     0.00000
    25   Ni    1  pz     Cor( 2p)     2.00000
    26   Ni    1  pz     Cor( 3p)     1.99716
    27   Ni    1  pz     Val( 4p)     0.23997
    28   Ni    1  pz     Ryd( 5p)     0.00068
    29   Ni    1  pz     Ryd( 6p)     0.00006
    30   Ni    1  pz     Ryd( 7p)     0.00002
    31   Ni    1  pz     Ryd( 8p)     0.00000
    32   Ni    1  dxy    Val( 3d)     1.76086
    33   Ni    1  dxy    Ryd( 4d)     0.00173
    34   Ni    1  dxy    Ryd( 5d)     0.00007
    35   Ni    1  dxy    Ryd( 6d)     0.00003
    36   Ni    1  dxz    Val( 3d)     1.88629
    37   Ni    1  dxz    Ryd( 4d)     0.00212
    38   Ni    1  dxz    Ryd( 5d)     0.00007
    39   Ni    1  dxz    Ryd( 6d)     0.00001
    40   Ni    1  dyz    Val( 3d)     1.88629
    41   Ni    1  dyz    Ryd( 4d)     0.00212
    42   Ni    1  dyz    Ryd( 5d)     0.00007
    43   Ni    1  dyz    Ryd( 6d)     0.00001
    44   Ni    1  dx2y2  Val( 3d)     1.76086
    45   Ni    1  dx2y2  Ryd( 4d)     0.00173
    46   Ni    1  dx2y2  Ryd( 5d)     0.00007
    47   Ni    1  dx2y2  Ryd( 6d)     0.00003
    48   Ni    1  dz2    Val( 3d)     1.90781
    49   Ni    1  dz2    Ryd( 4d)     0.00092
    50   Ni    1  dz2    Ryd( 5d)     0.00015
    51   Ni    1  dz2    Ryd( 6d)     0.00002
    52   Ni    1  f(0)   Ryd( 4f)     0.00003
    53   Ni    1  f(C1)  Ryd( 4f)     0.00002
    54   Ni    1  f(S1)  Ryd( 4f)     0.00002
    55   Ni    1  f(C2)  Ryd( 4f)     0.00002
    56   Ni    1  f(S2)  Ryd( 4f)     0.00002
    57   Ni    1  f(C3)  Ryd( 4f)     0.00000
    58   Ni    1  f(S3)  Ryd( 4f)     0.00007

    59   Ni    2  S      Cor( 1S)     2.00000
    60   Ni    2  S      Cor( 2S)     2.00000
    61   Ni    2  S      Cor( 3S)     1.99243
    62   Ni    2  S      Val( 4S)     0.47989
    63   Ni    2  S      Ryd( 5S)     0.00206
    64   Ni    2  S      Ryd( 6S)     0.00026
    65   Ni    2  S      Ryd( 7S)     0.00005
    66   Ni    2  S      Ryd( 8S)     0.00000
    67   Ni    2  S      Ryd(10S)     0.00000
    68   Ni    2  S      Ryd( 9S)     0.00000
    69   Ni    2  px     Cor( 2p)     2.00000
    70   Ni    2  px     Cor( 3p)     1.99790
    71   Ni    2  px     Val( 4p)     0.44957
    72   Ni    2  px     Ryd( 5p)     0.00045
    73   Ni    2  px     Ryd( 6p)     0.00021
    74   Ni    2  px     Ryd( 7p)     0.00001
    75   Ni    2  px     Ryd( 8p)     0.00000
    76   Ni    2  py     Cor( 2p)     2.00000
    77   Ni    2  py     Cor( 3p)     1.99790
    78   Ni    2  py     Val( 4p)     0.44957
    79   Ni    2  py     Ryd( 5p)     0.00045
    80   Ni    2  py     Ryd( 6p)     0.00021
    81   Ni    2  py     Ryd( 7p)     0.00001
    82   Ni    2  py     Ryd( 8p)     0.00000
    83   Ni    2  pz     Cor( 2p)     2.00000
    84   Ni    2  pz     Cor( 3p)     1.99716
    85   Ni    2  pz     Val( 4p)     0.23997
    86   Ni    2  pz     Ryd( 5p)     0.00068
    87   Ni    2  pz     Ryd( 6p)     0.00006
    88   Ni    2  pz     Ryd( 7p)     0.00002
    89   Ni    2  pz     Ryd( 8p)     0.00000
    90   Ni    2  dxy    Val( 3d)     1.76086
    91   Ni    2  dxy    Ryd( 4d)     0.00173
    92   Ni    2  dxy    Ryd( 5d)     0.00007
    93   Ni    2  dxy    Ryd( 6d)     0.00003
    94   Ni    2  dxz    Val( 3d)     1.88629
    95   Ni    2  dxz    Ryd( 4d)     0.00212
    96   Ni    2  dxz    Ryd( 5d)     0.00007
    97   Ni    2  dxz    Ryd( 6d)     0.00001
    98   Ni    2  dyz    Val( 3d)     1.88629
    99   Ni    2  dyz    Ryd( 4d)     0.00212
   100   Ni    2  dyz    Ryd( 5d)     0.00007
   101   Ni    2  dyz    Ryd( 6d)     0.00001
   102   Ni    2  dx2y2  Val( 3d)     1.76086
   103   Ni    2  dx2y2  Ryd( 4d)     0.00173
   104   Ni    2  dx2y2  Ryd( 5d)     0.00007
   105   Ni    2  dx2y2  Ryd( 6d)     0.00003
   106   Ni    2  dz2    Val( 3d)     1.90781
   107   Ni    2  dz2    Ryd( 4d)     0.00092
   108   Ni    2  dz2    Ryd( 5d)     0.00015
   109   Ni    2  dz2    Ryd( 6d)     0.00002
   110   Ni    2  f(0)   Ryd( 4f)     0.00003
   111   Ni    2  f(C1)  Ryd( 4f)     0.00002
   112   Ni    2  f(S1)  Ryd( 4f)     0.00002
   113   Ni    2  f(C2)  Ryd( 4f)     0.00002
   114   Ni    2  f(S2)  Ryd( 4f)     0.00002
   115   Ni    2  f(C3)  Ryd( 4f)     0.00000
   116   Ni    2  f(S3)  Ryd( 4f)     0.00007

   117    C    3  S      Cor( 1S)     1.99924
   118    C    3  S      Val( 2S)     1.25145
   119    C    3  S      Ryd( 3S)     0.04538
   120    C    3  S      Ryd( 4S)     0.00006
   121    C    3  S      Ryd( 5S)     0.00001
   122    C    3  px     Val( 2p)     0.59380
   123    C    3  px     Ryd( 3p)     0.00104
   124    C    3  px     Ryd( 4p)     0.00027
   125    C    3  px     Ryd( 5p)     0.00011
   126    C    3  py     Val( 2p)     0.83940
   127    C    3  py     Ryd( 3p)     0.01686
   128    C    3  py     Ryd( 4p)     0.00066
   129    C    3  py     Ryd( 5p)     0.00018
   130    C    3  pz     Val( 2p)     0.61661
   131    C    3  pz     Ryd( 3p)     0.00386
   132    C    3  pz     Ryd( 4p)     0.00032
   133    C    3  pz     Ryd( 5p)     0.00007
   134    C    3  dxy    Ryd( 3d)     0.00418
   135    C    3  dxz    Ryd( 3d)     0.00009
   136    C    3  dyz    Ryd( 3d)     0.00405
   137    C    3  dx2y2  Ryd( 3d)     0.00102
   138    C    3  dz2    Ryd( 3d)     0.00047

   139    C    4  S      Cor( 1S)     1.99924
   140    C    4  S      Val( 2S)     1.25145
   141    C    4  S      Ryd( 3S)     0.04538
   142    C    4  S      Ryd( 4S)     0.00006
   143    C    4  S      Ryd( 5S)     0.00001
   144    C    4  px     Val( 2p)     0.77800
   145    C    4  px     Ryd( 3p)     0.01291
   146    C    4  px     Ryd( 4p)     0.00056
   147    C    4  px     Ryd( 5p)     0.00016
   148    C    4  py     Val( 2p)     0.65520
   149    C    4  py     Ryd( 3p)     0.00500
   150    C    4  py     Ryd( 4p)     0.00037
   151    C    4  py     Ryd( 5p)     0.00013
   152    C    4  pz     Val( 2p)     0.61661
   153    C    4  pz     Ryd( 3p)     0.00386
   154    C    4  pz     Ryd( 4p)     0.00032
   155    C    4  pz     Ryd( 5p)     0.00007
   156    C    4  dxy    Ryd( 3d)     0.00181
   157    C    4  dxz    Ryd( 3d)     0.00306
   158    C    4  dyz    Ryd( 3d)     0.00108
   159    C    4  dx2y2  Ryd( 3d)     0.00339
   160    C    4  dz2    Ryd( 3d)     0.00047

   161    C    5  S      Cor( 1S)     1.99924
   162    C    5  S      Val( 2S)     1.25145
   163    C    5  S      Ryd( 3S)     0.04538
   164    C    5  S      Ryd( 4S)     0.00006
   165    C    5  S      Ryd( 5S)     0.00001
   166    C    5  px     Val( 2p)     0.77800
   167    C    5  px     Ryd( 3p)     0.01291
   168    C    5  px     Ryd( 4p)     0.00056
   169    C    5  px     Ryd( 5p)     0.00016
   170    C    5  py     Val( 2p)     0.65520
   171    C    5  py     Ryd( 3p)     0.00500
   172    C    5  py     Ryd( 4p)     0.00037
   173    C    5  py     Ryd( 5p)     0.00013
   174    C    5  pz     Val( 2p)     0.61661
   175    C    5  pz     Ryd( 3p)     0.00386
   176    C    5  pz     Ryd( 4p)     0.00032
   177    C    5  pz     Ryd( 5p)     0.00007
   178    C    5  dxy    Ryd( 3d)     0.00181
   179    C    5  dxz    Ryd( 3d)     0.00306
   180    C    5  dyz    Ryd( 3d)     0.00108
   181    C    5  dx2y2  Ryd( 3d)     0.00339
   182    C    5  dz2    Ryd( 3d)     0.00047

   183    C    6  S      Cor( 1S)     1.99924
   184    C    6  S      Val( 2S)     1.25145
   185    C    6  S      Ryd( 3S)     0.04538
   186    C    6  S      Ryd( 4S)     0.00006
   187    C    6  S      Ryd( 5S)     0.00001
   188    C    6  px     Val( 2p)     0.77800
   189    C    6  px     Ryd( 3p)     0.01291
   190    C    6  px     Ryd( 4p)     0.00056
   191    C    6  px     Ryd( 5p)     0.00016
   192    C    6  py     Val( 2p)     0.65520
   193    C    6  py     Ryd( 3p)     0.00500
   194    C    6  py     Ryd( 4p)     0.00037
   195    C    6  py     Ryd( 5p)     0.00013
   196    C    6  pz     Val( 2p)     0.61661
   197    C    6  pz     Ryd( 3p)     0.00386
   198    C    6  pz     Ryd( 4p)     0.00032
   199    C    6  pz     Ryd( 5p)     0.00007
   200    C    6  dxy    Ryd( 3d)     0.00181
   201    C    6  dxz    Ryd( 3d)     0.00306
   202    C    6  dyz    Ryd( 3d)     0.00108
   203    C    6  dx2y2  Ryd( 3d)     0.00339
   204    C    6  dz2    Ryd( 3d)     0.00047

   205    C    7  S      Cor( 1S)     1.99924
   206    C    7  S      Val( 2S)     1.25145
   207    C    7  S      Ryd( 3S)     0.04538
   208    C    7  S      Ryd( 4S)     0.00006
   209    C    7  S      Ryd( 5S)     0.00001
   210    C    7  px     Val( 2p)     0.59380
   211    C    7  px     Ryd( 3p)     0.00104
   212    C    7  px     Ryd( 4p)     0.00027
   213    C    7  px     Ryd( 5p)     0.00011
   214    C    7  py     Val( 2p)     0.83940
   215    C    7  py     Ryd( 3p)     0.01686
   216    C    7  py     Ryd( 4p)     0.00066
   217    C    7  py     Ryd( 5p)     0.00018
   218    C    7  pz     Val( 2p)     0.61661
   219    C    7  pz     Ryd( 3p)     0.00386
   220    C    7  pz     Ryd( 4p)     0.00032
   221    C    7  pz     Ryd( 5p)     0.00007
   222    C    7  dxy    Ryd( 3d)     0.00418
   223    C    7  dxz    Ryd( 3d)     0.00009
   224    C    7  dyz    Ryd( 3d)     0.00405
   225    C    7  dx2y2  Ryd( 3d)     0.00102
   226    C    7  dz2    Ryd( 3d)     0.00047

   227    C    8  S      Cor( 1S)     1.99924
   228    C    8  S      Val( 2S)     1.25145
   229    C    8  S      Ryd( 3S)     0.04538
   230    C    8  S      Ryd( 4S)     0.00006
   231    C    8  S      Ryd( 5S)     0.00001
   232    C    8  px     Val( 2p)     0.77800
   233    C    8  px     Ryd( 3p)     0.01291
   234    C    8  px     Ryd( 4p)     0.00056
   235    C    8  px     Ryd( 5p)     0.00016
   236    C    8  py     Val( 2p)     0.65520
   237    C    8  py     Ryd( 3p)     0.00500
   238    C    8  py     Ryd( 4p)     0.00037
   239    C    8  py     Ryd( 5p)     0.00013
   240    C    8  pz     Val( 2p)     0.61661
   241    C    8  pz     Ryd( 3p)     0.00386
   242    C    8  pz     Ryd( 4p)     0.00032
   243    C    8  pz     Ryd( 5p)     0.00007
   244    C    8  dxy    Ryd( 3d)     0.00181
   245    C    8  dxz    Ryd( 3d)     0.00306
   246    C    8  dyz    Ryd( 3d)     0.00108
   247    C    8  dx2y2  Ryd( 3d)     0.00339
   248    C    8  dz2    Ryd( 3d)     0.00047

   249    O    9  S      Cor( 1S)     1.99972
   250    O    9  S      Val( 2S)     1.70174
   251    O    9  S      Ryd( 3S)     0.00586
   252    O    9  S      Ryd( 4S)     0.00008
   253    O    9  S      Ryd( 5S)     0.00000
   254    O    9  px     Val( 2p)     1.56789
   255    O    9  px     Ryd( 3p)     0.00162
   256    O    9  px     Ryd( 4p)     0.00004
   257    O    9  px     Ryd( 5p)     0.00001
   258    O    9  py     Val( 2p)     1.66552
   259    O    9  py     Ryd( 3p)     0.00056
   260    O    9  py     Ryd( 4p)     0.00040
   261    O    9  py     Ryd( 5p)     0.00007
   262    O    9  pz     Val( 2p)     1.56220
   263    O    9  pz     Ryd( 3p)     0.00210
   264    O    9  pz     Ryd( 4p)     0.00004
   265    O    9  pz     Ryd( 5p)     0.00001
   266    O    9  dxy    Ryd( 3d)     0.00193
   267    O    9  dxz    Ryd( 3d)     0.00002
   268    O    9  dyz    Ryd( 3d)     0.00194
   269    O    9  dx2y2  Ryd( 3d)     0.00174
   270    O    9  dz2    Ryd( 3d)     0.00060

   271    O   10  S      Cor( 1S)     1.99972
   272    O   10  S      Val( 2S)     1.70174
   273    O   10  S      Ryd( 3S)     0.00586
   274    O   10  S      Ryd( 4S)     0.00008
   275    O   10  S      Ryd( 5S)     0.00000
   276    O   10  px     Val( 2p)     1.64111
   277    O   10  px     Ryd( 3p)     0.00083
   278    O   10  px     Ryd( 4p)     0.00031
   279    O   10  px     Ryd( 5p)     0.00006
   280    O   10  py     Val( 2p)     1.59230
   281    O   10  py     Ryd( 3p)     0.00136
   282    O   10  py     Ryd( 4p)     0.00013
   283    O   10  py     Ryd( 5p)     0.00003
   284    O   10  pz     Val( 2p)     1.56220
   285    O   10  pz     Ryd( 3p)     0.00210
   286    O   10  pz     Ryd( 4p)     0.00004
   287    O   10  pz     Ryd( 5p)     0.00001
   288    O   10  dxy    Ryd( 3d)     0.00178
   289    O   10  dxz    Ryd( 3d)     0.00146
   290    O   10  dyz    Ryd( 3d)     0.00050
   291    O   10  dx2y2  Ryd( 3d)     0.00188
   292    O   10  dz2    Ryd( 3d)     0.00060

   293    O   11  S      Cor( 1S)     1.99972
   294    O   11  S      Val( 2S)     1.70174
   295    O   11  S      Ryd( 3S)     0.00586
   296    O   11  S      Ryd( 4S)     0.00008
   297    O   11  S      Ryd( 5S)     0.00000
   298    O   11  px     Val( 2p)     1.64111
   299    O   11  px     Ryd( 3p)     0.00083
   300    O   11  px     Ryd( 4p)     0.00031
   301    O   11  px     Ryd( 5p)     0.00006
   302    O   11  py     Val( 2p)     1.59230
   303    O   11  py     Ryd( 3p)     0.00136
   304    O   11  py     Ryd( 4p)     0.00013
   305    O   11  py     Ryd( 5p)     0.00003
   306    O   11  pz     Val( 2p)     1.56220
   307    O   11  pz     Ryd( 3p)     0.00210
   308    O   11  pz     Ryd( 4p)     0.00004
   309    O   11  pz     Ryd( 5p)     0.00001
   310    O   11  dxy    Ryd( 3d)     0.00178
   311    O   11  dxz    Ryd( 3d)     0.00146
   312    O   11  dyz    Ryd( 3d)     0.00050
   313    O   11  dx2y2  Ryd( 3d)     0.00188
   314    O   11  dz2    Ryd( 3d)     0.00060

   315    O   12  S      Cor( 1S)     1.99972
   316    O   12  S      Val( 2S)     1.70174
   317    O   12  S      Ryd( 3S)     0.00586
   318    O   12  S      Ryd( 4S)     0.00008
   319    O   12  S      Ryd( 5S)     0.00000
   320    O   12  px     Val( 2p)     1.56789
   321    O   12  px     Ryd( 3p)     0.00162
   322    O   12  px     Ryd( 4p)     0.00004
   323    O   12  px     Ryd( 5p)     0.00001
   324    O   12  py     Val( 2p)     1.66552
   325    O   12  py     Ryd( 3p)     0.00056
   326    O   12  py     Ryd( 4p)     0.00040
   327    O   12  py     Ryd( 5p)     0.00007
   328    O   12  pz     Val( 2p)     1.56220
   329    O   12  pz     Ryd( 3p)     0.00210
   330    O   12  pz     Ryd( 4p)     0.00004
   331    O   12  pz     Ryd( 5p)     0.00001
   332    O   12  dxy    Ryd( 3d)     0.00193
   333    O   12  dxz    Ryd( 3d)     0.00002
   334    O   12  dyz    Ryd( 3d)     0.00194
   335    O   12  dx2y2  Ryd( 3d)     0.00174
   336    O   12  dz2    Ryd( 3d)     0.00060

   337    O   13  S      Cor( 1S)     1.99972
   338    O   13  S      Val( 2S)     1.70174
   339    O   13  S      Ryd( 3S)     0.00586
   340    O   13  S      Ryd( 4S)     0.00008
   341    O   13  S      Ryd( 5S)     0.00000
   342    O   13  px     Val( 2p)     1.64111
   343    O   13  px     Ryd( 3p)     0.00083
   344    O   13  px     Ryd( 4p)     0.00031
   345    O   13  px     Ryd( 5p)     0.00006
   346    O   13  py     Val( 2p)     1.59230
   347    O   13  py     Ryd( 3p)     0.00136
   348    O   13  py     Ryd( 4p)     0.00013
   349    O   13  py     Ryd( 5p)     0.00003
   350    O   13  pz     Val( 2p)     1.56220
   351    O   13  pz     Ryd( 3p)     0.00210
   352    O   13  pz     Ryd( 4p)     0.00004
   353    O   13  pz     Ryd( 5p)     0.00001
   354    O   13  dxy    Ryd( 3d)     0.00178
   355    O   13  dxz    Ryd( 3d)     0.00146
   356    O   13  dyz    Ryd( 3d)     0.00050
   357    O   13  dx2y2  Ryd( 3d)     0.00188
   358    O   13  dz2    Ryd( 3d)     0.00060

   359    O   14  S      Cor( 1S)     1.99972
   360    O   14  S      Val( 2S)     1.70174
   361    O   14  S      Ryd( 3S)     0.00586
   362    O   14  S      Ryd( 4S)     0.00008
   363    O   14  S      Ryd( 5S)     0.00000
   364    O   14  px     Val( 2p)     1.64111
   365    O   14  px     Ryd( 3p)     0.00083
   366    O   14  px     Ryd( 4p)     0.00031
   367    O   14  px     Ryd( 5p)     0.00006
   368    O   14  py     Val( 2p)     1.59230
   369    O   14  py     Ryd( 3p)     0.00136
   370    O   14  py     Ryd( 4p)     0.00013
   371    O   14  py     Ryd( 5p)     0.00003
   372    O   14  pz     Val( 2p)     1.56220
   373    O   14  pz     Ryd( 3p)     0.00210
   374    O   14  pz     Ryd( 4p)     0.00004
   375    O   14  pz     Ryd( 5p)     0.00001
   376    O   14  dxy    Ryd( 3d)     0.00178
   377    O   14  dxz    Ryd( 3d)     0.00146
   378    O   14  dyz    Ryd( 3d)     0.00050
   379    O   14  dx2y2  Ryd( 3d)     0.00188
   380    O   14  dz2    Ryd( 3d)     0.00060

 WARNING:  4 low occupancy (<1.9990e) core orbitals found on Ni    1
           4 low occupancy (<1.9990e) core orbitals found on Ni    2


 Summary of Natural Population Analysis:                  
                                                          
                                       Natural Population 
                Natural  -----------------------------------------------
    Atom  No    Charge         Core      Valence    Rydberg      Total
 -----------------------------------------------------------------------
     Ni    1   -0.82029     17.98539    10.82111    0.01379    28.82029
     Ni    2   -0.82029     17.98539    10.82111    0.01379    28.82029
      C    3    0.62086      1.99924     3.30126    0.07864     5.37914
      C    4    0.62086      1.99924     3.30126    0.07864     5.37914
      C    5    0.62086      1.99924     3.30126    0.07864     5.37914
      C    6    0.62086      1.99924     3.30126    0.07864     5.37914
      C    7    0.62086      1.99924     3.30126    0.07864     5.37914
      C    8    0.62086      1.99924     3.30126    0.07864     5.37914
      O    9   -0.51410      1.99972     6.49735    0.01702     8.51410
      O   10   -0.51410      1.99972     6.49735    0.01702     8.51410
      O   11   -0.51410      1.99972     6.49735    0.01702     8.51410
      O   12   -0.51410      1.99972     6.49735    0.01702     8.51410
      O   13   -0.51410      1.99972     6.49735    0.01702     8.51410
      O   14   -0.51410      1.99972     6.49735    0.01702     8.51410
 =======================================================================
   * Total *   -1.00000     59.96456    80.43390    0.60154   141.00000

                                 Natural Population      
 --------------------------------------------------------
   Core                      59.96456 ( 99.9409% of  60)
   Valence                   80.43390 ( 99.3011% of  81)
   Natural Minimal Basis    140.39846 ( 99.5734% of 141)
   Natural Rydberg Basis      0.60154 (  0.4266% of 141)
 --------------------------------------------------------

    Atom  No          Natural Electron Configuration
 ----------------------------------------------------------------------------
     Ni    1      [core]4S( 0.48)3d( 9.20)4p( 1.14)4d( 0.01)
     Ni    2      [core]4S( 0.48)3d( 9.20)4p( 1.14)4d( 0.01)
      C    3      [core]2S( 1.25)2p( 2.05)3S( 0.05)3p( 0.02)3d( 0.01)
      C    4      [core]2S( 1.25)2p( 2.05)3S( 0.05)3p( 0.02)3d( 0.01)
      C    5      [core]2S( 1.25)2p( 2.05)3S( 0.05)3p( 0.02)3d( 0.01)
      C    6      [core]2S( 1.25)2p( 2.05)3S( 0.05)3p( 0.02)3d( 0.01)
      C    7      [core]2S( 1.25)2p( 2.05)3S( 0.05)3p( 0.02)3d( 0.01)
      C    8      [core]2S( 1.25)2p( 2.05)3S( 0.05)3p( 0.02)3d( 0.01)
      O    9      [core]2S( 1.70)2p( 4.80)3S( 0.01)3d( 0.01)
      O   10      [core]2S( 1.70)2p( 4.80)3S( 0.01)3d( 0.01)
      O   11      [core]2S( 1.70)2p( 4.80)3S( 0.01)3d( 0.01)
      O   12      [core]2S( 1.70)2p( 4.80)3S( 0.01)3d( 0.01)
      O   13      [core]2S( 1.70)2p( 4.80)3S( 0.01)3d( 0.01)
      O   14      [core]2S( 1.70)2p( 4.80)3S( 0.01)3d( 0.01)


 Wiberg bond index matrix in the NAO basis:                                    

     Atom    1       2       3       4       5       6       7       8       9
     ---- ------  ------  ------  ------  ------  ------  ------  ------  ------
   1. Ni  0.0000  0.1310  1.0250  1.0250  1.0250  0.0340  0.0340  0.0340  0.1040
   2. Ni  0.1310  0.0000  0.0340  0.0340  0.0340  1.0250  1.0250  1.0250  0.0057
   3.  C  1.0250  0.0340  0.0000  0.0513  0.0513  0.0073  0.0044  0.0073  2.0774
   4.  C  1.0250  0.0340  0.0513  0.0000  0.0513  0.0044  0.0073  0.0073  0.0113
   5.  C  1.0250  0.0340  0.0513  0.0513  0.0000  0.0073  0.0073  0.0044  0.0113
   6.  C  0.0340  1.0250  0.0073  0.0044  0.0073  0.0000  0.0513  0.0513  0.0024
   7.  C  0.0340  1.0250  0.0044  0.0073  0.0073  0.0513  0.0000  0.0513  0.0016
   8.  C  0.0340  1.0250  0.0073  0.0073  0.0044  0.0513  0.0513  0.0000  0.0024
   9.  O  0.1040  0.0057  2.0774  0.0113  0.0113  0.0024  0.0016  0.0024  0.0000
  10.  O  0.1040  0.0057  0.0113  0.0113  2.0774  0.0024  0.0024  0.0016  0.0021
  11.  O  0.0057  0.1040  0.0024  0.0016  0.0024  2.0774  0.0113  0.0113  0.0006
  12.  O  0.0057  0.1040  0.0016  0.0024  0.0024  0.0113  2.0774  0.0113  0.0004
  13.  O  0.0057  0.1040  0.0024  0.0024  0.0016  0.0113  0.0113  2.0774  0.0006
  14.  O  0.1040  0.0057  0.0113  2.0774  0.0113  0.0016  0.0024  0.0024  0.0021

     Atom   10      11      12      13      14
     ---- ------  ------  ------  ------  ------
   1. Ni  0.1040  0.0057  0.0057  0.0057  0.1040
   2. Ni  0.0057  0.1040  0.1040  0.1040  0.0057
   3.  C  0.0113  0.0024  0.0016  0.0024  0.0113
   4.  C  0.0113  0.0016  0.0024  0.0024  2.0774
   5.  C  2.0774  0.0024  0.0024  0.0016  0.0113
   6.  C  0.0024  2.0774  0.0113  0.0113  0.0016
   7.  C  0.0024  0.0113  2.0774  0.0113  0.0024
   8.  C  0.0016  0.0113  0.0113  2.0774  0.0024
   9.  O  0.0021  0.0006  0.0004  0.0006  0.0021
  10.  O  0.0000  0.0006  0.0006  0.0004  0.0021
  11.  O  0.0006  0.0000  0.0021  0.0021  0.0004
  12.  O  0.0006  0.0021  0.0000  0.0021  0.0006
  13.  O  0.0004  0.0021  0.0021  0.0000  0.0006
  14.  O  0.0021  0.0004  0.0006  0.0006  0.0000


 Wiberg bond index, Totals by atom:                                            

     Atom    1
     ---- ------
   1. Ni  3.6368
   2. Ni  3.6368
   3.  C  3.2872
   4.  C  3.2872
   5.  C  3.2872
   6.  C  3.2872
   7.  C  3.2872
   8.  C  3.2872
   9.  O  2.2220
  10.  O  2.2220
  11.  O  2.2220
  12.  O  2.2220
  13.  O  2.2220
  14.  O  2.2220


 Atom-atom overlap-weighted NAO bond order:                                    

     Atom    1       2       3       4       5       6       7       8       9
     ---- ------  ------  ------  ------  ------  ------  ------  ------  ------
   1. Ni  0.0000  0.2316  1.0096  1.0096  1.0096  0.0574  0.0574  0.0574 -0.0213
   2. Ni  0.2316  0.0000  0.0574  0.0574  0.0574  1.0096  1.0096  1.0096 -0.0013
   3.  C  1.0096  0.0574  0.0000  0.0589  0.0589  0.0114  0.0019  0.0114  1.4842
   4.  C  1.0096  0.0574  0.0589  0.0000  0.0589  0.0019  0.0114  0.0114 -0.0019
   5.  C  1.0096  0.0574  0.0589  0.0589  0.0000  0.0114  0.0114  0.0019 -0.0019
   6.  C  0.0574  1.0096  0.0114  0.0019  0.0114  0.0000  0.0589  0.0589 -0.0016
   7.  C  0.0574  1.0096  0.0019  0.0114  0.0114  0.0589  0.0000  0.0589 -0.0001
   8.  C  0.0574  1.0096  0.0114  0.0114  0.0019  0.0589  0.0589  0.0000 -0.0016
   9.  O -0.0213 -0.0013  1.4842 -0.0019 -0.0019 -0.0016 -0.0001 -0.0016  0.0000
  10.  O -0.0213 -0.0013 -0.0019 -0.0019  1.4842 -0.0016 -0.0016 -0.0001  0.0000
  11.  O -0.0013 -0.0213 -0.0016 -0.0001 -0.0016  1.4842 -0.0019 -0.0019  0.0006
  12.  O -0.0013 -0.0213 -0.0001 -0.0016 -0.0016 -0.0019  1.4842 -0.0019  0.0000
  13.  O -0.0013 -0.0213 -0.0016 -0.0016 -0.0001 -0.0019 -0.0019  1.4842  0.0006
  14.  O -0.0213 -0.0013 -0.0019  1.4842 -0.0019 -0.0001 -0.0016 -0.0016  0.0000

     Atom   10      11      12      13      14
     ---- ------  ------  ------  ------  ------
   1. Ni -0.0213 -0.0013 -0.0013 -0.0013 -0.0213
   2. Ni -0.0013 -0.0213 -0.0213 -0.0213 -0.0013
   3.  C -0.0019 -0.0016 -0.0001 -0.0016 -0.0019
   4.  C -0.0019 -0.0001 -0.0016 -0.0016  1.4842
   5.  C  1.4842 -0.0016 -0.0016 -0.0001 -0.0019
   6.  C -0.0016  1.4842 -0.0019 -0.0019 -0.0001
   7.  C -0.0016 -0.0019  1.4842 -0.0019 -0.0016
   8.  C -0.0001 -0.0019 -0.0019  1.4842 -0.0016
   9.  O  0.0000  0.0006  0.0000  0.0006  0.0000
  10.  O  0.0000  0.0006  0.0006  0.0000  0.0000
  11.  O  0.0006  0.0000  0.0000  0.0000  0.0000
  12.  O  0.0006  0.0000  0.0000  0.0000  0.0006
  13.  O  0.0000  0.0000  0.0000  0.0000  0.0006
  14.  O  0.0000  0.0000  0.0006  0.0006  0.0000


 Atom-atom overlap-weighted NAO bond order, Totals by atom:                    

     Atom    1
     ---- ------
   1. Ni  3.3648
   2. Ni  3.3648
   3.  C  2.6865
   4.  C  2.6865
   5.  C  2.6865
   6.  C  2.6865
   7.  C  2.6865
   8.  C  2.6865
   9.  O  1.4555
  10.  O  1.4555
  11.  O  1.4555
  12.  O  1.4555
  13.  O  1.4555
  14.  O  1.4555


 MO bond order:                                                                

     Atom    1       2       3       4       5       6       7       8       9
     ---- ------  ------  ------  ------  ------  ------  ------  ------  ------
   1. Ni  0.0000  0.2985  1.3132  1.7784 -0.2828 -0.0238 -0.0589  0.0767 -0.5037
   2. Ni  0.2985  0.0000 -0.1758 -0.1097 -0.1740 -0.2353 -0.9573  0.4260  0.1645
   3.  C  1.3132 -0.1758  0.0000  0.2768 -0.1865 -0.1555 -0.0494 -0.0793  1.8293
   4.  C  1.7784 -0.1097  0.2768  0.0000 -0.2030 -0.0446 -0.1803 -0.0549 -0.1562
   5.  C -0.2828 -0.1740 -0.1865 -0.2030  0.0000 -0.1251 -0.1743 -0.0809  0.1175
   6.  C -0.0238 -0.2353 -0.1555 -0.0446 -0.1251  0.0000 -0.4668  0.1069  0.0649
   7.  C -0.0589 -0.9573 -0.0494 -0.1803 -0.1743 -0.4668  0.0000 -0.1800  0.0735
   8.  C  0.0767  0.4260 -0.0793 -0.0549 -0.0809  0.1069 -0.1800  0.0000  0.0654
   9.  O -0.5037  0.1645  1.8293 -0.1562  0.1175  0.0649  0.0735  0.0654  0.0000
  10.  O  0.2230  0.1587 -0.0316 -0.0019  0.3763  0.1003  0.1167  0.0705 -0.0441
  11.  O -0.0037  0.4859  0.0354  0.0436  0.0204  2.0918  0.1318 -0.1402 -0.0139
  12.  O  0.0232  0.4348  0.0411  0.0396  0.0388  0.0852  0.7911 -0.0496 -0.0233
  13.  O -0.0374 -0.0573  0.0431  0.0288  0.0848 -0.0298  0.1074  1.4022 -0.0350
  14.  O -0.8126  0.1283 -0.1969  2.6898  0.1064  0.0645  0.0709  0.0550  0.0486

     Atom   10      11      12      13      14
     ---- ------  ------  ------  ------  ------
   1. Ni  0.2230 -0.0037  0.0232 -0.0374 -0.8126
   2. Ni  0.1587  0.4859  0.4348 -0.0573  0.1283
   3.  C -0.0316  0.0354  0.0411  0.0431 -0.1969
   4.  C -0.0019  0.0436  0.0396  0.0288  2.6898
   5.  C  0.3763  0.0204  0.0388  0.0848  0.1064
   6.  C  0.1003  2.0918  0.0852 -0.0298  0.0645
[...]
                                                    378(g)
   113. RY*(   1)Ni   2                  0.00089     0.82460   
   114. RY*(   2)Ni   2                  0.00089     0.82460   
   115. RY*(   3)Ni   2                  0.00046     1.02857   
   116. RY*(   4)Ni   2                  0.00026     1.10736   
   117. RY*(   5)Ni   2                  0.00026     1.10736   
   118. RY*(   6)Ni   2                  0.00017     1.00550   
   119. RY*(   7)Ni   2                  0.00013     0.89845   
   120. RY*(   8)Ni   2                  0.00013     0.89845   
   121. RY*(   9)Ni   2                  0.00009     1.87825   
   122. RY*(  10)Ni   2                  0.00007     2.30123   
   123. RY*(  11)Ni   2                  0.00007     2.30123   
   124. RY*(  12)Ni   2                  0.00005     2.45186   
   125. RY*(  13)Ni   2                  0.00000    32.68435   
   126. RY*(  14)Ni   2                  0.00000     2.19003   
   127. RY*(  15)Ni   2                  0.00000   127.21539   
   128. RY*(  16)Ni   2                  0.00000     1.83990   
   129. RY*(  17)Ni   2                  0.00000    12.56385   
   130. RY*(  18)Ni   2                  0.00000    32.72839   
   131. RY*(  19)Ni   2                  0.00000    12.30770   
   132. RY*(  20)Ni   2                  0.00000     2.41831   
   133. RY*(  21)Ni   2                  0.00000     7.01438   
   134. RY*(  22)Ni   2                  0.00000    32.68435   
   135. RY*(  23)Ni   2                  0.00001     1.91006   
   136. RY*(  24)Ni   2                  0.00000     6.95734   
   137. RY*(  25)Ni   2                  0.00000   318.44031   
   138. RY*(  26)Ni   2                  0.00001     1.90962   
   139. RY*(  27)Ni   2                  0.00000     6.95801   
   140. RY*(  28)Ni   2                  0.00000   585.87605   
   141. RY*(  29)Ni   2                  0.00000     2.42055   
   142. RY*(  30)Ni   2                  0.00000     7.01102   
   143. RY*(  31)Ni   2                  0.00000    12.30914   
   144. RY*(  32)Ni   2                  0.00000     2.12861   
   145. RY*(  33)Ni   2                  0.00000     6.95953   
   146. RY*(  34)Ni   2                  0.00000     3.75856   
   147. RY*(  35)Ni   2                  0.00000     3.85151   
   148. RY*(  36)Ni   2                  0.00000     3.85099   
   149. RY*(  37)Ni   2                  0.00000     3.74450   
   150. RY*(  38)Ni   2                  0.00000     3.74453   
   151. RY*(  39)Ni   2                  0.00000     3.76193   
   152. RY*(  40)Ni   2                  0.00000     3.82153   
   204. RY*(   1) C   6                  0.01120     0.91602   
   205. RY*(   2) C   6                  0.00353     2.80028   
   206. RY*(   3) C   6                  0.00175     1.24462   
   207. RY*(   4) C   6                  0.00172     1.71054   
   208. RY*(   5) C   6                  0.00049     1.09038   
   209. RY*(   6) C   6                  0.00030     1.48324   
   210. RY*(   7) C   6                  0.00005     0.98340   
   211. RY*(   8) C   6                  0.00005     1.30468   
   212. RY*(   9) C   6                  0.00002     1.58489   
   213. RY*(  10) C   6                  0.00002     0.69339   
   214. RY*(  11) C   6                  0.00001     3.82041   
   215. RY*(  12) C   6                  0.00001     0.90336   
   216. RY*(  13) C   6                  0.00002     1.83202   
   217. RY*(  14) C   6                  0.00000     2.48993   
   218. RY*(  15) C   6                  0.00001     2.43554   
   219. RY*(  16) C   6                  0.00001     2.25968   
   220. RY*(  17) C   6                  0.00000    21.57965   
   221. RY*(   1) C   7                  0.01120     0.91602   
   222. RY*(   2) C   7                  0.00353     2.80028   
   223. RY*(   3) C   7                  0.00175     1.24462   
   224. RY*(   4) C   7                  0.00172     1.71054   
   225. RY*(   5) C   7                  0.00049     1.09038   
   226. RY*(   6) C   7                  0.00030     1.48324   
   227. RY*(   7) C   7                  0.00005     1.43812   
   228. RY*(   8) C   7                  0.00005     0.84996   
   229. RY*(   9) C   7                  0.00002     0.91886   
   230. RY*(  10) C   7                  0.00002     1.59361   
   231. RY*(  11) C   7                  0.00001     3.45956   
   232. RY*(  12) C   7                  0.00002     1.04237   
   233. RY*(  13) C   7                  0.00002     1.84541   
   234. RY*(  14) C   7                  0.00001     2.13173   
   235. RY*(  15) C   7                  0.00000     2.50346   
   236. RY*(  16) C   7                  0.00001     2.20546   
   237. RY*(  17) C   7                  0.00000    21.89841   
   238. RY*(   1) C   8                  0.01120     0.91602   
   239. RY*(   2) C   8                  0.00353     2.80028   
   240. RY*(   3) C   8                  0.00175     1.24462   
   241. RY*(   4) C   8                  0.00172     1.71054   
   242. RY*(   5) C   8                  0.00049     1.09038   
   243. RY*(   6) C   8                  0.00030     1.48324   
   244. RY*(   7) C   8                  0.00005     0.98340   
   245. RY*(   8) C   8                  0.00005     1.30468   
   246. RY*(   9) C   8                  0.00002     1.58489   
   247. RY*(  10) C   8                  0.00002     0.69339   
   248. RY*(  11) C   8                  0.00001     3.82041   
   249. RY*(  12) C   8                  0.00001     0.90336   
   250. RY*(  13) C   8                  0.00002     1.83202   
   251. RY*(  14) C   8                  0.00000     2.48993   
   252. RY*(  15) C   8                  0.00001     2.43554   
   253. RY*(  16) C   8                  0.00001     2.25968   
   254. RY*(  17) C   8                  0.00000    21.57965   
   289. RY*(   1) O  11                  0.00221     0.91991   
   290. RY*(   2) O  11                  0.00081     0.63831   
   291. RY*(   3) O  11                  0.00034     0.61973   
   292. RY*(   4) O  11                  0.00007     1.20116   
   293. RY*(   5) O  11                  0.00002     1.91014   
   294. RY*(   6) O  11                  0.00002     1.24324   
   295. RY*(   7) O  11                  0.00001     1.40487   
   296. RY*(   8) O  11                  0.00000     4.94678   
   297. RY*(   9) O  11                  0.00000     5.03211   
   298. RY*(  10) O  11                  0.00000    49.51129   
   299. RY*(  11) O  11                  0.00001     1.22525   
   300. RY*(  12) O  11                  0.00000     4.93970   
   301. RY*(  13) O  11                  0.00000     3.43965   
   302. RY*(  14) O  11                  0.00000     3.13326   
   303. RY*(  15) O  11                  0.00000     2.97445   
   304. RY*(  16) O  11                  0.00000     3.26289   
   305. RY*(  17) O  11                  0.00000     3.07634   
   306. RY*(   1) O  12                  0.00221     0.91991   
   307. RY*(   2) O  12                  0.00081     0.63831   
   308. RY*(   3) O  12                  0.00034     0.61973   
   309. RY*(   4) O  12                  0.00007     1.20116   
   310. RY*(   5) O  12                  0.00002     1.90707   
   311. RY*(   6) O  12                  0.00002     1.21790   
   312. RY*(   7) O  12                  0.00000    49.61879   
   313. RY*(   8) O  12                  0.00001     1.31976   
   314. RY*(   9) O  12                  0.00000     5.00666   
   315. RY*(  10) O  12                  0.00000     4.95825   
   316. RY*(  11) O  12                  0.00001     1.23471   
   317. RY*(  12) O  12                  0.00000     4.94230   
   318. RY*(  13) O  12                  0.00000     3.20970   
   319. RY*(  14) O  12                  0.00000     2.89824   
   320. RY*(  15) O  12                  0.00000     3.21373   
   321. RY*(  16) O  12                  0.00000     3.50536   
   322. RY*(  17) O  12                  0.00000     3.06748   
   323. RY*(   1) O  13                  0.00221     0.91991   
   324. RY*(   2) O  13                  0.00081     0.63831   
   325. RY*(   3) O  13                  0.00034     0.61973   
   326. RY*(   4) O  13                  0.00007     1.20116   
   327. RY*(   5) O  13                  0.00002     1.91014   
   328. RY*(   6) O  13                  0.00002     1.24324   
   329. RY*(   7) O  13                  0.00001     1.40487   
   330. RY*(   8) O  13                  0.00000     4.94678   
   331. RY*(   9) O  13                  0.00000     5.03211   
   332. RY*(  10) O  13                  0.00000    49.51129   
   333. RY*(  11) O  13                  0.00001     1.22525   
   334. RY*(  12) O  13                  0.00000     4.93970   
   335. RY*(  13) O  13                  0.00000     3.43965   
   336. RY*(  14) O  13                  0.00000     3.13326   
   337. RY*(  15) O  13                  0.00000     2.97445   
   338. RY*(  16) O  13                  0.00000     3.26289   
   339. RY*(  17) O  13                  0.00000     3.07634   
   360. BD*(   1)Ni   2 - C   6          0.00428     0.55317   
   361. BD*(   1)Ni   2 - C   7          0.00428     0.55317   
   362. BD*(   1)Ni   2 - C   8          0.00428     0.55317   
   372. BD*(   1) C   6 - O  11          0.00466     0.83042   
   373. BD*(   2) C   6 - O  11          0.08008     0.16002   
   374. BD*(   3) C   6 - O  11          0.03570     0.16589   
   375. BD*(   1) C   7 - O  12          0.00466     0.83042   
   376. BD*(   2) C   7 - O  12          0.08008     0.16002   
   377. BD*(   3) C   7 - O  12          0.03570     0.16589   
   378. BD*(   1) C   8 - O  13          0.00466     0.83042   
   379. BD*(   2) C   8 - O  13          0.08008     0.16002   
   380. BD*(   3) C   8 - O  13          0.03570     0.16589   
       -------------------------------
              Total Lewis   34.52761  ( 98.6504%)
        Valence non-Lewis    0.40080  (  1.1451%)
        Rydberg non-Lewis    0.07157  (  0.2045%)
       -------------------------------
            Total unit  2   34.99999  (100.0000%)
           Charge unit  2    0.00001
 Sorting of NBOs:                   34   25   26   35   28   37   30   39   32   41
 Sorting of NBOs:                   52   54   51   50   49   53   44   46   47   45
 Sorting of NBOs:                   48   43   27   36   29   31   38   40   42   33
 Sorting of NBOs:                   22   13   16   10    7   19   68   69   72   67
 Sorting of NBOs:                   70   71    2    6    5    3    1    4    8   20
 Sorting of NBOs:                   23   17   14   11    9   12   24   18   15   21
 Sorting of NBOs:                   56   63   62   57   58   65   64   59   55   61
 Sorting of NBOs:                  373  367  364  379  376  370  377  365  371  374
 Sorting of NBOs:                  368  380   66   60  357  360  361  359  362  358
 Sorting of NBOs:                  308  274  325  291  342  257  290  273  324  307
 Sorting of NBOs:                  256  341  196  179  247  213  113   74   73  114
 Sorting of NBOs:                  375  366  372  378  369  363  228  160   80  120
 Sorting of NBOs:                   79  119  215  181  249  198  204  153  187  238
 Sorting of NBOs:                  221  170  161  229  255  272  340  323  289  306
 Sorting of NBOs:                  210  193  244  176  118   78  115   75  232  164
 Sorting of NBOs:                  208  174  225  157  191  242   76  117  116   77
 Sorting of NBOs:                  309  258  275  326  292  343  311  260  299  350
 Sorting of NBOs:                  333  282  265  316  277  328  345  294  223  206
 Sorting of NBOs:                  240  172  155  189  211  177  245  194  262  313
 Sorting of NBOs:                  295  278  346  329  159  227  226  175  158  243
 Sorting of NBOs:                  192  209  195  246  178  212  162  230  173  224
 Sorting of NBOs:                  156  190  241  207  216  182  250  199  128   88
 Sorting of NBOs:                  165  233   81  121  259  310  138   98  135   95
 Sorting of NBOs:                  327  344  276  293  144  104  166  234  126   86
 Sorting of NBOs:                  168  236  185  253  219  202  122   82  123   83
 Sorting of NBOs:                  132   92  141  101  252  201  184  218   84  124
 Sorting of NBOs:                  251  217  200  183  167  235  205  222  239  188
 Sorting of NBOs:                  154  171  319  268  337  303  354  286  271  322
 Sorting of NBOs:                  305  356  339  288  302  353  336  285  267  318
 Sorting of NBOs:                  269  320  355  304  338  287  352  301  335  284
 Sorting of NBOs:                  163  231  270  321  109  149  150  110  146  106
 Sorting of NBOs:                  151  111  214  180  248  197  152  112  148  108
 Sorting of NBOs:                  147  107  300  351  334  283  317  266  296  347
 Sorting of NBOs:                  330  279  264  315  314  263  280  331  348  297
 Sorting of NBOs:                   96  136   99  139  145  105  102  142   93  133
 Sorting of NBOs:                   91  131  103  143   89  129  203  254  186  220
 Sorting of NBOs:                  169  237  125   85  134   94  130   90  332  349
 Sorting of NBOs:                  298  281  312  261   87  127   97  137  140  100
 Reordering of NBOs for storage:    34   25   26   35   28   37   30   39   32   41
 Reordering of NBOs for storage:    52   54   51   50   49   53   44   46   47   45
 Reordering of NBOs for storage:    48   43   27   36   29   31   38   40   42   33
 Reordering of NBOs for storage:    22   13   16   10    7   19   68   69   72   67
 Reordering of NBOs for storage:    70   71    2    6    5    3    1    4    8   20
 Reordering of NBOs for storage:    23   17   14   11    9   12   24   18   15   21
 Reordering of NBOs for storage:    56   63   62   57   58   65   64   59   55   61
 Reordering of NBOs for storage:   373  367  364  379  376  370  377  365  371  374
 Reordering of NBOs for storage:   368  380   66   60  357  360  361  359  362  358
 Reordering of NBOs for storage:   375  366  372  378  369  363  308  274  325  291
 Reordering of NBOs for storage:   342  257  290  273  324  307  256  341  196  179
 Reordering of NBOs for storage:   247  213  113   74   73  114  228  160   80  120
 Reordering of NBOs for storage:    79  119  215  181  249  198  204  153  187  238
 Reordering of NBOs for storage:   221  170  161  229  255  272  340  323  289  306
 Reordering of NBOs for storage:   210  193  244  176  118   78  115   75  232  164
 Reordering of NBOs for storage:   208  174  225  157  191  242   76  117  116   77
 Reordering of NBOs for storage:   309  258  275  326  292  343  311  260  299  350
 Reordering of NBOs for storage:   333  282  265  316  277  328  345  294  223  206
 Reordering of NBOs for storage:   240  172  155  189  211  177  245  194  262  313
 Reordering of NBOs for storage:   295  278  346  329  159  227  226  175  158  243
 Reordering of NBOs for storage:   192  209  195  246  178  212  162  230  173  224
 Reordering of NBOs for storage:   156  190  241  207  216  182  250  199  128   88
 Reordering of NBOs for storage:   165  233   81  121  259  310  138   98  135   95
 Reordering of NBOs for storage:   327  344  276  293  144  104  166  234  126   86
 Reordering of NBOs for storage:   168  236  185  253  219  202  122   82  123   83
 Reordering of NBOs for storage:   132   92  141  101  252  201  184  218   84  124
 Reordering of NBOs for storage:   251  217  200  183  167  235  205  222  239  188
 Reordering of NBOs for storage:   154  171  319  268  337  303  354  286  271  322
 Reordering of NBOs for storage:   305  356  339  288  302  353  336  285  267  318
 Reordering of NBOs for storage:   269  320  355  304  338  287  352  301  335  284
 Reordering of NBOs for storage:   163  231  270  321  109  149  150  110  146  106
 Reordering of NBOs for storage:   151  111  214  180  248  197  152  112  148  108
 Reordering of NBOs for storage:   147  107  300  351  334  283  317  266  296  347
 Reordering of NBOs for storage:   330  279  264  315  314  263  280  331  348  297
 Reordering of NBOs for storage:    96  136   99  139  145  105  102  142   93  133
 Reordering of NBOs for storage:    91  131  103  143   89  129  203  254  186  220
 Reordering of NBOs for storage:   169  237  125   85  134   94  130   90  332  349
 Reordering of NBOs for storage:   298  281  312  261   87  127   97  137  140  100
 Labels of output orbitals:  CR  CR  CR  CR  CR  CR  CR  CR  CR  CR  CR  CR  CR  CR  CR  CR  CR  CR  CR  CR  
 Labels of output orbitals:  CR  CR  CR  CR  CR  CR  CR  CR  CR  CR  BD  BD  BD  BD  BD  BD  LP  LP  LP  LP  
 Labels of output orbitals:  LP  LP  BD  BD  BD  BD  BD  BD  BD  BD  BD  BD  BD  BD  BD  BD  BD  BD  BD  BD  
 Labels of output orbitals:  LP  LP  LP  LP  LP  LP  LP  LP  LP  LP  BD* BD* BD* BD* BD* BD* BD* BD* BD* BD* 
 Labels of output orbitals:  BD* BD* LP* LP* BD* BD* BD* BD* BD* BD* BD* BD* BD* BD* BD* BD* RY* RY* RY* RY* 
 Labels of output orbitals:  RY* RY* RY* RY* RY* RY* RY* RY* RY* RY* RY* RY* RY* RY* RY* RY* RY* RY* RY* RY* 
 Labels of output orbitals:  RY* RY* RY* RY* RY* RY* RY* RY* RY* RY* RY* RY* RY* RY* RY* RY* RY* RY* RY* RY* 
 Labels of output orbitals:  RY* RY* RY* RY* RY* RY* RY* RY* RY* RY* RY* RY* RY* RY* RY* RY* RY* RY* RY* RY* 
 Labels of output orbitals:  RY* RY* RY* RY* RY* RY* RY* RY* RY* RY* RY* RY* RY* RY* RY* RY* RY* RY* RY* RY* 
 Labels of output orbitals:  RY* RY* RY* RY* RY* RY* RY* RY* RY* RY* RY* RY* RY* RY* RY* RY* RY* RY* RY* RY* 
 Labels of output orbitals:  RY* RY* RY* RY* RY* RY* RY* RY* RY* RY* RY* RY* RY* RY* RY* RY* RY* RY* RY* RY* 
 Labels of output orbitals:  RY* RY* RY* RY* RY* RY* RY* RY* RY* RY* RY* RY* RY* RY* RY* RY* RY* RY* RY* RY* 
 Labels of output orbitals:  RY* RY* RY* RY* RY* RY* RY* RY* RY* RY* RY* RY* RY* RY* RY* RY* RY* RY* RY* RY* 
 Labels of output orbitals:  RY* RY* RY* RY* RY* RY* RY* RY* RY* RY* RY* RY* RY* RY* RY* RY* RY* RY* RY* RY* 
 Labels of output orbitals:  RY* RY* RY* RY* RY* RY* RY* RY* RY* RY* RY* RY* RY* RY* RY* RY* RY* RY* RY* RY* 
 Labels of output orbitals:  RY* RY* RY* RY* RY* RY* RY* RY* RY* RY* RY* RY* RY* RY* RY* RY* RY* RY* RY* RY* 
 Labels of output orbitals:  RY* RY* RY* RY* RY* RY* RY* RY* RY* RY* RY* RY* RY* RY* RY* RY* RY* RY* RY* RY* 
 Labels of output orbitals:  RY* RY* RY* RY* RY* RY* RY* RY* RY* RY* RY* RY* RY* RY* RY* RY* RY* RY* RY* RY* 
 Labels of output orbitals:  RY* RY* RY* RY* RY* RY* RY* RY* RY* RY* RY* RY* RY* RY* RY* RY* RY* RY* RY* RY* 
 1|1|UNPC-CCX|SP|UB3LYP|6-311+G(d)|C6Ni2O6(1-,2)|CCX|23-Oct-2016|0||# u
 b3lyp/6-311+g(d) guess=read geom=allcheck pop=(nboread,savenbo)||from 
 Ni2CO6-_33_D3d_2th_2||-1,2|Ni,0.,0.,1.4233945677|Ni,0.,0.,-1.423394567
 7|C,0.0000001041,1.7895354048,1.5872672773|C,1.5497830695,-0.894767792
 6,1.5872672773|C,-1.5497831736,-0.8947676123,1.5872672773|C,-1.5497830
 695,0.8947677926,-1.5872672773|C,-0.0000001041,-1.7895354048,-1.587267
 2773|C,1.5497831736,0.8947676123,-1.5872672773|O,0.0000001708,2.937140
 4624,1.7026655692|O,-2.5436383404,-1.4685700833,1.7026655692|O,-2.5436
 381695,1.4685703792,-1.7026655692|O,-0.0000001708,-2.9371404624,-1.702
 6655692|O,2.5436383404,1.4685700833,-1.7026655692|O,2.5436381695,-1.46
 85703792,1.7026655692||Version=IA32W-G09RevA.02|State=2-A1G|HF=-3697.0
 006546|S2=0.761558|S2-1=0.|S2A=0.750123|RMSD=6.268e-009|Dipole=0.,0.,0
 .|Quadrupole=-1.1068911,-1.1068911,2.2137821,0.,0.,0.|PG=D03D [C3(Ni1.
 Ni1),3SGD(C2O2)]||@


 A people that values its privileges above its principles soon loses both.
 -- Dwight D. Eisenhower
 Job cpu time:  0 days  0 hours  3 minutes 13.0 seconds.
 File lengths (MBytes):  RWF=    137 Int=      0 D2E=      0 Chk=     13 Scr=      1
 Normal termination of Gaussian 09 at Sun Oct 23 15:44:46 2016.
