 Entering Link 1 = C:\G09W\l1.exe PID=     13128.
  
 Copyright (c) 1988,1990,1992,1993,1995,1998,2003,2009, Gaussian, Inc.
                  All Rights Reserved.
  
 This is part of the Gaussian(R) 09 program.  It is based on
 the Gaussian(R) 03 system (copyright 2003, Gaussian, Inc.),
 the Gaussian(R) 98 system (copyright 1998, Gaussian, Inc.),
 the Gaussian(R) 94 system (copyright 1995, Gaussian, Inc.),
 the Gaussian 92(TM) system (copyright 1992, Gaussian, Inc.),
 the Gaussian 90(TM) system (copyright 1990, Gaussian, Inc.),
 the Gaussian 88(TM) system (copyright 1988, Gaussian, Inc.),
 the Gaussian 86(TM) system (copyright 1986, Carnegie Mellon
 University), and the Gaussian 82(TM) system (copyright 1983,
 Carnegie Mellon University). Gaussian is a federally registered
 trademark of Gaussian, Inc.
  
 This software contains proprietary and confidential information,
 including trade secrets, belonging to Gaussian, Inc.
  
 This software is provided under written license and may be
 used, copied, transmitted, or stored only in accord with that
 written license.
  
 The following legend is applicable only to US Government
 contracts under FAR:
  
                    RESTRICTED RIGHTS LEGEND
  
 Use, reproduction and disclosure by the US Government is
 subject to restrictions as set forth in subparagraphs (a)
 and (c) of the Commercial Computer Software - Restricted
 Rights clause in FAR 52.227-19.
  
 Gaussian, Inc.
 340 Quinnipiac St., Bldg. 40, Wallingford CT 06492
  
  
 ---------------------------------------------------------------
 Warning -- This program may not be used in any manner that
 competes with the business of Gaussian, Inc. or will provide
 assistance to any competitor of Gaussian, Inc.  The licensee
 of this program is prohibited from giving any competitor of
 Gaussian, Inc. access to this program.  By using this program,
 the user acknowledges that Gaussian, Inc. is engaged in the
 business of creating and licensing software in the field of
 computational chemistry and represents and warrants to the
 licensee that it is not a competitor of Gaussian, Inc. and that
 it will not use this program in any manner prohibited above.
 ---------------------------------------------------------------
  

 Cite this work as:
 Gaussian 09, Revision A.02,
 M. J. Frisch, G. W. Trucks, H. B. Schlegel, G. E. Scuseria, 
 M. A. Robb, J. R. Cheeseman, G. Scalmani, V. Barone, B. Mennucci, 
 G. A. Petersson, H. Nakatsuji, M. Caricato, X. Li, H. P. Hratchian, 
 A. F. Izmaylov, J. Bloino, G. Zheng, J. L. Sonnenberg, M. Hada, 
 M. Ehara, K. Toyota, R. Fukuda, J. Hasegawa, M. Ishida, T. Nakajima, 
 Y. Honda, O. Kitao, H. Nakai, T. Vreven, J. A. Montgomery, Jr., 
 J. E. Peralta, F. Ogliaro, M. Bearpark, J. J. Heyd, E. Brothers, 
 K. N. Kudin, V. N. Staroverov, R. Kobayashi, J. Normand, 
 K. Raghavachari, A. Rendell, J. C. Burant, S. S. Iyengar, J. Tomasi, 
 M. Cossi, N. Rega, J. M. Millam, M. Klene, J. E. Knox, J. B. Cross, 
 V. Bakken, C. Adamo, J. Jaramillo, R. Gomperts, R. E. Stratmann, 
 O. Yazyev, A. J. Austin, R. Cammi, C. Pomelli, J. W. Ochterski, 
 R. L. Martin, K. Morokuma, V. G. Zakrzewski, G. A. Voth, 
 P. Salvador, J. J. Dannenberg, S. Dapprich, A. D. Daniels, 
 O. Farkas, J. B. Foresman, J. V. Ortiz, J. Cioslowski, 
 and D. J. Fox, Gaussian, Inc., Wallingford CT, 2009.
 
 ******************************************
 Gaussian 09:  IA32W-G09RevA.02 11-Jun-2009
                23-Oct-2016 
 ******************************************
 %chk=E:\theoretical calculation\Ni2COn-\6311+Gd Use\Ni2CO5-_221_A_2th_2_C2v_1_bi
 g_chk_NBO.chk
 %mem=400MB
 ------------------------------------------------------------------
 # ub3lyp/6-311+g(d) guess=read geom=allcheck pop=(nboread,savenbo)
 ------------------------------------------------------------------
 1/29=7,38=1/1;
 2/12=2,40=1/2;
 3/5=4,6=6,7=11,11=2,14=-4,16=1,25=1,30=1,74=-5,116=2/1,2,3;
 4/5=1/1;
 5/5=2,38=6/2;
 6/7=2,8=2,9=2,10=2,28=1,40=1,73=1/1,7;
 99/5=1,9=1/99;
 ------------------------
 from Ni2CO5-_221_A_2th_2
 ------------------------
 No Z-matrix found on checkpoint file.
 Cartesian coordinates read from the checkpoint file:
 E:\theoretical calculation\Ni2COn-\6311+Gd Use\Ni2CO5-_221_A_2th_2_C2v_1_big_chk_NBO.chk
 Charge = -1 Multiplicity = 2
  Ni                                                0.000000000000      0.000000000000      1.331911000000
  Ni                                                0.000000000000      0.000000000000     -1.049571000000
  C                                                 0.000000000000      0.000000000000      3.071868000000
  C                                                 0.000000000000      1.570561000000      0.254260000000
  C                                                -1.526171000000      0.000000000000     -1.983766000000
  C                                                 1.526171000000      0.000000000000     -1.983766000000
  C                                                 0.000000000000     -1.570561000000      0.254260000000
  O                                                 0.000000000000      2.736669000000      0.156985000000
  O                                                -2.491116000000      0.000000000000     -2.621500000000
  O                                                 2.491116000000      0.000000000000     -2.621500000000
  O                                                 0.000000000000     -2.736669000000      0.156985000000
  O                                                 0.000000000000      0.000000000000      4.231196000000
 Recover connectivity data from disk.
                          Input orientation:                          
 ---------------------------------------------------------------------
 Center     Atomic      Atomic             Coordinates (Angstroms)
 Number     Number       Type             X           Y           Z
 ---------------------------------------------------------------------
      1         28           0        0.000000    0.000000    1.331911
      2         28           0        0.000000    0.000000   -1.049571
      3          6           0        0.000000    0.000000    3.071868
      4          6           0        0.000000    1.570561    0.254260
      5          6           0       -1.526171    0.000000   -1.983766
      6          6           0        1.526171    0.000000   -1.983766
      7          6           0        0.000000   -1.570561    0.254260
      8          8           0        0.000000    2.736669    0.156985
      9          8           0       -2.491116    0.000000   -2.621500
     10          8           0        2.491116    0.000000   -2.621500
     11          8           0        0.000000   -2.736669    0.156985
     12          8           0        0.000000    0.000000    4.231196
 ---------------------------------------------------------------------
                    Distance matrix (angstroms):
                    1          2          3          4          5
     1  Ni   0.000000
     2  Ni   2.381482   0.000000
     3  C    1.739957   4.121439   0.000000
     4  C    1.904729   2.041234   3.225768   0.000000
     5  C    3.650056   1.789390   5.280969   3.131233   0.000000
     6  C    3.650056   1.789390   5.280969   3.131233   3.052342
     7  C    1.904729   2.041234   3.225768   3.141122   3.131233
     8  O    2.978222   2.990842   3.998237   1.170158   3.794914
     9  O    4.672806   2.945610   6.214507   4.116105   1.156643
    10  O    4.672806   2.945610   6.214507   4.116105   4.067591
    11  O    2.978222   2.990842   3.998237   4.308328   3.794914
    12  O    2.899285   5.280767   1.159328   4.275825   6.399606
                    6          7          8          9         10
     6  C    0.000000
     7  C    3.131233   0.000000
     8  O    3.794914   4.308328   0.000000
     9  O    4.067591   4.116105   4.627634   0.000000
    10  O    1.156643   4.116105   4.627634   4.982232   0.000000
    11  O    3.794914   1.170158   5.473338   4.627634   4.627634
    12  O    6.399606   4.275825   4.908009   7.291440   7.291440
                   11         12
    11  O    0.000000
    12  O    4.908009   0.000000
 Stoichiometry    C5Ni2O5(1-,2)
 Framework group  C2V[C2(NiNiCO),SGV(C2O2),SGV'(C2O2)]
 Deg. of freedom    11
 Full point group                 C2V     NOp   4
 Largest Abelian subgroup         C2V     NOp   4
 Largest concise Abelian subgroup C2V     NOp   4
                         Standard orientation:                         
 ---------------------------------------------------------------------
 Center     Atomic      Atomic             Coordinates (Angstroms)
 Number     Number       Type             X           Y           Z
 ---------------------------------------------------------------------
      1         28           0        0.000000    0.000000    1.331911
      2         28           0        0.000000    0.000000   -1.049571
      3          6           0        0.000000    0.000000    3.071868
      4          6           0        0.000000    1.570561    0.254260
      5          6           0       -1.526171    0.000000   -1.983766
      6          6           0        1.526171    0.000000   -1.983766
      7          6           0        0.000000   -1.570561    0.254260
      8          8           0        0.000000    2.736669    0.156985
      9          8           0       -2.491116    0.000000   -2.621500
     10          8           0        2.491116    0.000000   -2.621500
     11          8           0        0.000000   -2.736669    0.156985
     12          8           0        0.000000    0.000000    4.231196
 ---------------------------------------------------------------------
 Rotational constants (GHZ):      0.9135526      0.4443909      0.4277059
 Standard basis: 6-311+G(d) (5D, 7F)
 There are   140 symmetry adapted basis functions of A1  symmetry.
 There are    36 symmetry adapted basis functions of A2  symmetry.
 There are    80 symmetry adapted basis functions of B1  symmetry.
 There are    80 symmetry adapted basis functions of B2  symmetry.
 Integral buffers will be    262144 words long.
 Raffenetti 2 integral format.
 Two-electron integral symmetry is turned on.
   336 basis functions,   548 primitive gaussians,   360 cartesian basis functions
    64 alpha electrons       63 beta electrons
       nuclear repulsion energy      1275.5214389129 Hartrees.
 NAtoms=   12 NActive=   12 NUniq=    8 SFac= 1.69D+00 NAtFMM=   80 NAOKFM=F Big=F
 One-electron integrals computed using PRISM.
 NBasis=   336 RedAO= T  NBF=   140    36    80    80
 NBsUse=   336 1.00D-06 NBFU=   140    36    80    80
 Initial guess read from the checkpoint file:  E:\theoretical calculation\Ni2COn-
 \6311+Gd Use\Ni2CO5-_221_A_2th_2_C2v_1_big_chk_NBO.chk
 B after Tr=     0.000000    0.000000    0.000000
         Rot=    1.000000    0.000000    0.000000    0.000000 Ang=   0.00 deg.
 Initial guess orbital symmetries:
 Alpha Orbitals:
       Occupied  (A1) (A1) (A1) (A1) (B1) (A1) (B2) (A1) (B2) (B1)
                 (B1) (A1) (A1) (A1) (B2) (A1) (B1) (A1) (A1) (B2)
                 (A1) (A1) (B1) (A1) (A1) (B2) (B2) (B1) (A1) (B1)
                 (A1) (A1) (B2) (A1) (A1) (B1) (A1) (B2) (A1) (A1)
                 (B2) (A2) (A1) (B2) (B1) (B1) (A1) (B2) (B2) (B1)
                 (A2) (A1) (B1) (A1) (A2) (B1) (A1) (B2) (A2) (A1)
                 (A1) (B2) (B1) (B2)
       Virtual   (B1) (A1) (A1) (A1) (B2) (A2) (B1) (A1) (A2) (B1)
                 (B2) (B1) (B2) (A1) (A1) (B2) (B1) (A1) (A1) (A1)
                 (B1) (A2) (B2) (A1) (A2) (B1) (A1) (B2) (B2) (B1)
                 (B1) (A1) (A1) (B2) (A1) (B2) (B1) (A1) (A1) (B1)
                 (A2) (B2) (A1) (B1) (A1) (B2) (A1) (B1) (A1) (A2)
                 (B1) (A1) (B2) (B2) (A1) (A1) (B1) (B1) (A1) (B2)
                 (A1) (A1) (B2) (B1) (A2) (A1) (B2) (A1) (A2) (A1)
                 (B2) (A1) (B1) (B2) (B1) (A1) (A2) (A1) (B1) (B2)
                 (B2) (A2) (B1) (A1) (B1) (B2) (A1) (A1) (B2) (B1)
                 (A1) (B2) (A1) (A1) (B1) (A1) (A1) (B1) (B2) (A1)
                 (A1) (A1) (B2) (A2) (B1) (A2) (B1) (B1) (A1) (B2)
                 (A1) (A1) (A1) (B1) (B2) (B2) (A1) (A2) (A2) (B2)
                 (A1) (B1) (A2) (B1) (B2) (A2) (B1) (A1) (B2) (A1)
                 (B1) (B1) (A1) (A1) (B2) (B2) (A1) (A2) (B1) (B2)
                 (A1) (A1) (B2) (A2) (A1) (B1) (A2) (B1) (A1) (B1)
                 (A1) (A1) (B2) (B2) (A1) (B2) (B1) (A1) (B2) (A1)
                 (B1) (A2) (B1) (A1) (A2) (B2) (B2) (B1) (A1) (A2)
                 (A2) (A1) (B1) (B2) (A1) (A1) (B1) (A2) (B2) (B1)
                 (A1) (B2) (A1) (A1) (B1) (A1) (B2) (A1) (B1) (A2)
                 (B1) (B2) (A2) (B2) (B1) (A1) (A1) (B2) (B1) (A2)
                 (A1) (B2) (A2) (B2) (B1) (B1) (A1) (B1) (B2) (A1)
                 (B2) (A1) (A1) (B2) (B1) (A1) (A1) (A1) (A1) (B2)
                 (A2) (B1) (A2) (B1) (B2) (B1) (A1) (B2) (A1) (B2)
                 (B1) (A1) (A1) (A1) (A2) (A1) (A2) (B1) (A1) (B2)
                 (A1) (B2) (B1) (A1) (B1) (B2) (B2) (B1) (A1) (A1)
                 (A1) (B2) (B1) (A1) (A1) (A1) (A1) (B1) (B2) (B2)
                 (B1) (A1) (A1) (B2) (A1) (A1) (B1) (A1) (A1) (A1)
                 (A1) (A1)
 Beta  Orbitals:
       Occupied  (A1) (A1) (A1) (A1) (B1) (A1) (B2) (A1) (B2) (B1)
                 (B1) (A1) (A1) (A1) (B2) (B1) (A1) (A1) (A1) (B2)
                 (A1) (A1) (B1) (A1) (A1) (B2) (B2) (B1) (A1) (B1)
                 (A1) (A1) (B2) (A1) (A1) (B1) (A1) (B2) (A1) (A1)
                 (A1) (B1) (B1) (B2) (A2) (B2) (B1) (B2) (A1) (B1)
                 (A2) (A1) (B2) (A1) (A2) (B1) (B2) (A1) (A2) (A1)
                 (A1) (B1) (B2)
       Virtual   (B2) (B1) (A1) (A1) (A1) (B2) (A2) (B1) (B1) (A2)
                 (B1) (A1) (B2) (A1) (B2) (A1) (B1) (B2) (A1) (A1)
                 (B1) (A1) (A2) (B2) (A1) (A2) (B1) (A1) (B2) (B2)
                 (B1) (B1) (A1) (A1) (B2) (A1) (B2) (B1) (A1) (A1)
                 (B1) (A2) (B2) (A1) (B1) (B2) (A1) (A1) (B1) (A1)
                 (A2) (B1) (A1) (B2) (B2) (A1) (A1) (B1) (B1) (A1)
                 (B2) (A1) (A1) (B1) (B2) (A1) (A2) (B2) (A1) (A2)
                 (A1) (B2) (A1) (B1) (B2) (B1) (A1) (A2) (A1) (B1)
                 (B2) (A2) (B2) (B1) (A1) (B1) (B2) (A1) (A1) (B2)
                 (B1) (A1) (B2) (A1) (A1) (B1) (A1) (A1) (B1) (B2)
                 (A1) (A1) (A1) (B2) (A2) (B1) (A2) (B1) (B1) (A1)
                 (A1) (B2) (A1) (A1) (B1) (B2) (B2) (A1) (A2) (A2)
                 (B2) (A1) (B1) (A2) (B1) (B2) (A2) (B1) (A1) (B2)
                 (B1) (A1) (B1) (A1) (A1) (B2) (B2) (A1) (A2) (B1)
                 (B2) (A1) (A1) (A2) (B2) (A1) (B1) (A2) (B1) (A1)
                 (B1) (A1) (A1) (B2) (B2) (A1) (B2) (B1) (A1) (B2)
                 (A1) (B1) (A2) (B1) (A1) (A2) (B2) (B1) (B2) (A1)
                 (A2) (A1) (A2) (B1) (A1) (B2) (A1) (B1) (A2) (B2)
                 (B1) (A1) (B2) (A1) (A1) (B1) (A1) (B2) (A1) (B1)
                 (A2) (B1) (B2) (A2) (B2) (B1) (A1) (A1) (B2) (B1)
                 (A2) (A1) (B2) (A2) (B2) (B1) (B1) (A1) (B1) (B2)
                 (A1) (B2) (A1) (A1) (B2) (B1) (A1) (A1) (A1) (A1)
                 (B1) (A2) (B2) (A2) (B1) (B2) (B1) (A1) (B2) (A1)
                 (B2) (B1) (A1) (A1) (A1) (A2) (A1) (A2) (B1) (A1)
                 (B2) (A1) (B2) (B1) (A1) (B1) (B2) (B2) (B1) (A1)
                 (A1) (A1) (B2) (B1) (A1) (A1) (A1) (A1) (B1) (B2)
                 (B2) (B1) (A1) (A1) (B2) (A1) (A1) (B1) (A1) (A1)
                 (A1) (A1) (A1)
 Initial guess <Sx>= 0.0000 <Sy>= 0.0000 <Sz>= 0.5000 <S**2>= 0.7724 S= 0.5112
 Requested convergence on RMS density matrix=1.00D-08 within 128 cycles.
 Requested convergence on MAX density matrix=1.00D-06.
 Requested convergence on             energy=1.00D-06.
 No special actions if energy rises.
 SCF Done:  E(UB3LYP) =  -3583.61554645     A.U. after    8 cycles
             Convg  =    0.3461D-08             -V/T =  2.0012
 <Sx>= 0.0000 <Sy>= 0.0000 <Sz>= 0.5000 <S**2>= 0.7724 S= 0.5112
 <L.S>= 0.000000000000E+00
 Annihilation of the first spin contaminant:
 S**2 before annihilation     0.7724,   after     0.7504

 **********************************************************************

            Population analysis using the SCF density.

 **********************************************************************

 Orbital symmetries:
 Alpha Orbitals:
       Occupied  (A1) (A1) (A1) (A1) (B1) (A1) (B2) (A1) (B2) (B1)
                 (B1) (A1) (A1) (A1) (B2) (A1) (B1) (A1) (A1) (B2)
                 (A1) (A1) (B1) (A1) (A1) (B2) (B2) (B1) (A1) (B1)
                 (A1) (A1) (B2) (A1) (A1) (B1) (A1) (B2) (A1) (A1)
                 (B2) (A2) (A1) (B2) (B1) (B1) (A1) (B2) (B2) (B1)
                 (A2) (A1) (B1) (A1) (A2) (B1) (A1) (B2) (A2) (A1)
                 (A1) (B2) (B1) (B2)
       Virtual   (B1) (A1) (A1) (A1) (B2) (A2) (B1) (A1) (A2) (B1)
                 (B2) (B1) (B2) (A1) (A1) (B2) (B1) (A1) (A1) (A1)
                 (B1) (A2) (B2) (A1) (A2) (B1) (A1) (B2) (B2) (B1)
                 (B1) (A1) (A1) (B2) (A1) (B2) (B1) (A1) (A1) (B1)
                 (A2) (B2) (A1) (B1) (A1) (B2) (A1) (B1) (A1) (A2)
                 (B1) (A1) (B2) (B2) (A1) (A1) (B1) (B1) (A1) (B2)
                 (A1) (A1) (B2) (B1) (A2) (A1) (B2) (A1) (A2) (A1)
                 (B2) (A1) (B1) (B2) (B1) (A1) (A2) (A1) (B1) (B2)
                 (B2) (A2) (B1) (A1) (B1) (B2) (A1) (A1) (B2) (B1)
                 (A1) (B2) (A1) (A1) (B1) (A1) (A1) (B1) (B2) (A1)
                 (A1) (A1) (B2) (A2) (B1) (A2) (B1) (B1) (A1) (B2)
                 (A1) (A1) (A1) (B1) (B2) (B2) (A1) (A2) (A2) (B2)
                 (A1) (B1) (A2) (B1) (B2) (A2) (B1) (A1) (B2) (A1)
                 (B1) (B1) (A1) (A1) (B2) (B2) (A1) (A2) (B1) (B2)
                 (A1) (A1) (B2) (A2) (A1) (B1) (A2) (B1) (A1) (B1)
                 (A1) (A1) (B2) (B2) (A1) (B2) (B1) (A1) (B2) (A1)
                 (B1) (A2) (B1) (A1) (A2) (B2) (B2) (B1) (A1) (A2)
                 (A2) (A1) (B1) (B2) (A1) (A1) (B1) (A2) (B2) (B1)
                 (A1) (B2) (A1) (A1) (B1) (A1) (B2) (A1) (B1) (A2)
                 (B1) (B2) (A2) (B2) (B1) (A1) (A1) (B2) (B1) (A2)
                 (A1) (B2) (A2) (B2) (B1) (B1) (A1) (B1) (B2) (A1)
                 (B2) (A1) (A1) (B2) (B1) (A1) (A1) (A1) (A1) (B2)
                 (A2) (B1) (A2) (B1) (B2) (B1) (A1) (B2) (A1) (B2)
                 (B1) (A1) (A1) (A1) (A2) (A1) (A2) (B1) (A1) (B2)
                 (A1) (B2) (B1) (A1) (B1) (B2) (B2) (B1) (A1) (A1)
                 (A1) (B2) (B1) (A1) (A1) (A1) (A1) (B1) (B2) (B2)
                 (B1) (A1) (A1) (B2) (A1) (A1) (B1) (A1) (A1) (A1)
                 (A1) (A1)
 Beta  Orbitals:
       Occupied  (A1) (A1) (A1) (A1) (B1) (A1) (B2) (A1) (B2) (B1)
                 (B1) (A1) (A1) (A1) (B2) (B1) (A1) (A1) (A1) (B2)
                 (A1) (A1) (B1) (A1) (A1) (B2) (B2) (B1) (A1) (B1)
                 (A1) (A1) (B2) (A1) (A1) (B1) (A1) (B2) (A1) (A1)
                 (A1) (B1) (B1) (B2) (A2) (B2) (B1) (B2) (A1) (B1)
                 (A2) (A1) (B2) (A1) (A2) (B1) (B2) (A1) (A2) (A1)
                 (A1) (B1) (B2)
       Virtual   (B2) (B1) (A1) (A1) (A1) (B2) (A2) (B1) (B1) (A2)
                 (B1) (A1) (B2) (A1) (B2) (A1) (B1) (B2) (A1) (A1)
                 (B1) (A1) (A2) (B2) (A1) (A2) (B1) (A1) (B2) (B2)
                 (B1) (B1) (A1) (A1) (B2) (A1) (B2) (B1) (A1) (A1)
                 (B1) (A2) (B2) (A1) (B1) (B2) (A1) (A1) (B1) (A1)
                 (A2) (B1) (A1) (B2) (B2) (A1) (A1) (B1) (B1) (A1)
                 (B2) (A1) (A1) (B1) (B2) (A1) (A2) (B2) (A1) (A2)
                 (A1) (B2) (A1) (B1) (B2) (B1) (A1) (A2) (A1) (B1)
                 (B2) (A2) (B2) (B1) (A1) (B1) (B2) (A1) (A1) (B2)
                 (B1) (A1) (B2) (A1) (A1) (B1) (A1) (A1) (B1) (B2)
                 (A1) (A1) (A1) (B2) (A2) (B1) (A2) (B1) (B1) (A1)
                 (A1) (B2) (A1) (A1) (B1) (B2) (B2) (A1) (A2) (A2)
                 (B2) (A1) (B1) (A2) (B1) (B2) (A2) (B1) (A1) (B2)
                 (B1) (A1) (B1) (A1) (A1) (B2) (B2) (A1) (A2) (B1)
                 (B2) (A1) (A1) (A2) (B2) (A1) (B1) (A2) (B1) (A1)
                 (B1) (A1) (A1) (B2) (B2) (A1) (B2) (B1) (A1) (B2)
                 (A1) (B1) (A2) (B1) (A1) (A2) (B2) (B1) (B2) (A1)
                 (A2) (A1) (A2) (B1) (A1) (B2) (A1) (B1) (A2) (B2)
                 (B1) (A1) (B2) (A1) (A1) (B1) (A1) (B2) (A1) (B1)
                 (A2) (B1) (B2) (A2) (B2) (B1) (A1) (A1) (B2) (B1)
                 (A2) (A1) (B2) (A2) (B2) (B1) (B1) (A1) (B1) (B2)
                 (A1) (B2) (A1) (A1) (B2) (B1) (A1) (A1) (A1) (A1)
                 (B1) (A2) (B2) (A2) (B1) (B2) (B1) (A1) (B2) (A1)
                 (B2) (B1) (A1) (A1) (A1) (A2) (A1) (A2) (B1) (A1)
                 (B2) (A1) (B2) (B1) (A1) (B1) (B2) (B2) (B1) (A1)
                 (A1) (A1) (B2) (B1) (A1) (A1) (A1) (A1) (B1) (B2)
                 (B2) (B1) (A1) (A1) (B2) (A1) (A1) (B1) (A1) (A1)
                 (A1) (A1) (A1)
 The electronic state is 2-B2.
 Alpha  occ. eigenvalues -- -299.68365-299.66374 -35.61316 -35.58875 -31.06063
 Alpha  occ. eigenvalues --  -31.05737 -31.05239 -31.03746 -31.03524 -31.02570
 Alpha  occ. eigenvalues --  -19.06576 -19.06575 -19.06386 -19.04283 -19.04282
 Alpha  occ. eigenvalues --  -10.14737 -10.14737 -10.14387 -10.13505 -10.13504
 Alpha  occ. eigenvalues --   -3.87116  -3.85012  -2.46916  -2.46352  -2.45249
 Alpha  occ. eigenvalues --   -2.45119  -2.44278  -2.42661  -0.99946  -0.99934
 Alpha  occ. eigenvalues --   -0.99607  -0.97274  -0.97261  -0.45403  -0.43957
 Alpha  occ. eigenvalues --   -0.43455  -0.42907  -0.42652  -0.35128  -0.33352
 Alpha  occ. eigenvalues --   -0.32714  -0.32642  -0.32543  -0.32353  -0.32108
 Alpha  occ. eigenvalues --   -0.32056  -0.31267  -0.31105  -0.31015  -0.30864
 Alpha  occ. eigenvalues --   -0.30059  -0.30016  -0.29985  -0.15278  -0.14608
 Alpha  occ. eigenvalues --   -0.14086  -0.13064  -0.12899  -0.11707  -0.10538
 Alpha  occ. eigenvalues --   -0.10048  -0.09660  -0.09558  -0.01015
 Alpha virt. eigenvalues --    0.05654   0.09093   0.09131   0.10045   0.10907
 Alpha virt. eigenvalues --    0.11030   0.11873   0.12321   0.12444   0.12986
 Alpha virt. eigenvalues --    0.13190   0.13482   0.14369   0.14672   0.16015
 Alpha virt. eigenvalues --    0.16232   0.16417   0.17536   0.17897   0.18784
 Alpha virt. eigenvalues --    0.18802   0.19642   0.19789   0.19910   0.22071
 Alpha virt. eigenvalues --    0.22721   0.23628   0.24172   0.24974   0.25625
 Alpha virt. eigenvalues --    0.26799   0.27078   0.28432   0.29439   0.32569
 Alpha virt. eigenvalues --    0.33269   0.33705   0.35226   0.36803   0.37388
 Alpha virt. eigenvalues --    0.37560   0.37726   0.37851   0.39063   0.39498
 Alpha virt. eigenvalues --    0.39526   0.40128   0.40257   0.40561   0.41605
 Alpha virt. eigenvalues --    0.41903   0.41968   0.42174   0.43254   0.43370
 Alpha virt. eigenvalues --    0.43986   0.44577   0.45322   0.46686   0.47809
 Alpha virt. eigenvalues --    0.48272   0.50596   0.51576   0.51926   0.51930
 Alpha virt. eigenvalues --    0.52186   0.57475   0.58298   0.61508   0.63429
 Alpha virt. eigenvalues --    0.63430   0.65120   0.65248   0.68722   0.70510
 Alpha virt. eigenvalues --    0.70684   0.72941   0.75169   0.75624   0.76388
 Alpha virt. eigenvalues --    0.79518   0.79582   0.79990   0.81777   0.82886
 Alpha virt. eigenvalues --    0.83789   0.85843   0.87876   0.89342   0.89564
 Alpha virt. eigenvalues --    0.94244   0.95358   0.96688   0.97164   0.98447
 Alpha virt. eigenvalues --    1.01536   1.04851   1.07137   1.08738   1.11785
 Alpha virt. eigenvalues --    1.15766   1.21033   1.22141   1.23005   1.23389
 Alpha virt. eigenvalues --    1.23713   1.23955   1.25670   1.26660   1.28260
 Alpha virt. eigenvalues --    1.28320   1.29354   1.29886   1.29978   1.30999
 Alpha virt. eigenvalues --    1.33340   1.34697   1.39787   1.40723   1.41918
 Alpha virt. eigenvalues --    1.43936   1.45390   1.45565   1.48942   1.50676
 Alpha virt. eigenvalues --    1.51689   1.55984   1.56433   1.56557   1.58382
 Alpha virt. eigenvalues --    1.58761   1.67696   1.68554   1.72695   1.73636
 Alpha virt. eigenvalues --    1.76179   1.77003   1.77474   1.78832   1.81299
 Alpha virt. eigenvalues --    1.81905   1.87409   1.88245   1.88562   1.92805
 Alpha virt. eigenvalues --    1.93863   1.98138   2.00252   2.05307   2.07191
 Alpha virt. eigenvalues --    2.07971   2.11828   2.16575   2.25415   2.26798
 Alpha virt. eigenvalues --    2.31681   2.36851   2.44180   2.53449   2.62575
 Alpha virt. eigenvalues --    2.78996   2.80618   2.81484   2.81685   2.82185
 Alpha virt. eigenvalues --    2.86237   2.87751   2.88173   2.90661   2.92679
 Alpha virt. eigenvalues --    2.92806   2.92859   2.92920   2.93267   2.93334
 Alpha virt. eigenvalues --    2.94104   2.94749   2.95109   2.96268   2.97391
 Alpha virt. eigenvalues --    2.97616   3.04187   3.07006   3.24054   3.32097
 Alpha virt. eigenvalues --    3.32679   3.34588   3.45472   3.46539   3.46837
 Alpha virt. eigenvalues --    3.47562   3.48595   3.49202   3.50242   3.50503
 Alpha virt. eigenvalues --    3.52161   3.53806   3.55777   3.76296   3.76408
 Alpha virt. eigenvalues --    3.78618   3.79078   3.82339   3.85043   3.85868
 Alpha virt. eigenvalues --    3.87370   3.87687   3.91087   3.91420   3.92741
 Alpha virt. eigenvalues --    3.95089   3.98617   4.03043   4.04120   4.11171
 Alpha virt. eigenvalues --    4.14106   4.25153   4.43072   4.64086   5.13578
 Alpha virt. eigenvalues --    5.13621   5.13877   5.15667   5.16027   5.17894
 Alpha virt. eigenvalues --    5.18297   5.18920   5.25363   5.26603   5.73735
 Alpha virt. eigenvalues --    5.75274   5.75288   5.77153   5.79160   6.94103
 Alpha virt. eigenvalues --    6.97584   7.01411   7.02969   7.13463   7.14894
 Alpha virt. eigenvalues --    7.20481   7.24202   7.24309   7.48253   8.92531
 Alpha virt. eigenvalues --    9.12816   9.20015   9.36938   9.39788   9.57331
 Alpha virt. eigenvalues --   23.99522  24.00611  24.01629  24.02936  24.04665
 Alpha virt. eigenvalues --   30.10921  30.41548  36.45382  36.60228  36.65407
 Alpha virt. eigenvalues --   36.77428  36.80892  36.95557  50.07378  50.13573
 Alpha virt. eigenvalues --   50.13874  50.15554  50.15907 162.49553 162.74837
 Alpha virt. eigenvalues --  845.20556 845.46257
  Beta  occ. eigenvalues -- -299.68332-299.66354 -35.61695 -35.59184 -31.06343
  Beta  occ. eigenvalues --  -31.06027 -31.05541 -31.04043 -31.03820 -31.02699
  Beta  occ. eigenvalues --  -19.06391 -19.06391 -19.06281 -19.03853 -19.03852
  Beta  occ. eigenvalues --  -10.14618 -10.14618 -10.14325 -10.13294 -10.13293
  Beta  occ. eigenvalues --   -3.87859  -3.85632  -2.47658  -2.47119  -2.46042
  Beta  occ. eigenvalues --   -2.45936  -2.45085  -2.43004  -0.99628  -0.99616
  Beta  occ. eigenvalues --   -0.99431  -0.96541  -0.96528  -0.44661  -0.43583
  Beta  occ. eigenvalues --   -0.43018  -0.42267  -0.41690  -0.34713  -0.32782
  Beta  occ. eigenvalues --   -0.32340  -0.31975  -0.31856  -0.31839  -0.31682
  Beta  occ. eigenvalues --   -0.31619  -0.30538  -0.30531  -0.29743  -0.29654
  Beta  occ. eigenvalues --   -0.29646  -0.29533  -0.28921  -0.15781  -0.15012
  Beta  occ. eigenvalues --   -0.14394  -0.13426  -0.12665  -0.12018  -0.11002
  Beta  occ. eigenvalues --   -0.10466  -0.09925  -0.09571
  Beta virt. eigenvalues --    0.04817   0.05814   0.09102   0.09282   0.10183
  Beta virt. eigenvalues --    0.11811   0.12005   0.12036   0.13211   0.13291
  Beta virt. eigenvalues --    0.13499   0.13594   0.14277   0.14820   0.14876
  Beta virt. eigenvalues --    0.16110   0.16435   0.16518   0.17622   0.17890
  Beta virt. eigenvalues --    0.18796   0.18829   0.19708   0.19810   0.20045
  Beta virt. eigenvalues --    0.22093   0.22721   0.23649   0.24236   0.25053
  Beta virt. eigenvalues --    0.25727   0.26835   0.27155   0.28562   0.29756
  Beta virt. eigenvalues --    0.32838   0.33594   0.33759   0.35367   0.36937
  Beta virt. eigenvalues --    0.37419   0.37631   0.37837   0.37919   0.39157
  Beta virt. eigenvalues --    0.39642   0.39711   0.40183   0.40288   0.40679
  Beta virt. eigenvalues --    0.41695   0.41927   0.42001   0.42241   0.43380
  Beta virt. eigenvalues --    0.43532   0.44078   0.44642   0.45346   0.47007
  Beta virt. eigenvalues --    0.48092   0.48615   0.50793   0.52126   0.52323
  Beta virt. eigenvalues --    0.52348   0.52425   0.58302   0.58754   0.62187
  Beta virt. eigenvalues --    0.63813   0.63997   0.65498   0.65506   0.69527
  Beta virt. eigenvalues --    0.70640   0.70872   0.73322   0.75448   0.75801
  Beta virt. eigenvalues --    0.76754   0.79836   0.79997   0.80117   0.81966
  Beta virt. eigenvalues --    0.82996   0.84214   0.86188   0.88151   0.89624
  Beta virt. eigenvalues --    0.89898   0.94372   0.95807   0.96936   0.97298
  Beta virt. eigenvalues --    0.98705   1.01813   1.05077   1.07580   1.09210
  Beta virt. eigenvalues --    1.12065   1.16090   1.21490   1.22569   1.23306
  Beta virt. eigenvalues --    1.23502   1.24059   1.24080   1.25804   1.26766
  Beta virt. eigenvalues --    1.28455   1.28513   1.29553   1.30022   1.30149
  Beta virt. eigenvalues --    1.31254   1.34191   1.35513   1.40331   1.41306
  Beta virt. eigenvalues --    1.42559   1.44391   1.45829   1.45973   1.49451
  Beta virt. eigenvalues --    1.51197   1.52115   1.56332   1.56930   1.57190
  Beta virt. eigenvalues --    1.58894   1.58933   1.67880   1.68986   1.72915
  Beta virt. eigenvalues --    1.74090   1.76518   1.77172   1.78005   1.79076
  Beta virt. eigenvalues --    1.81933   1.82088   1.87573   1.88812   1.88922
  Beta virt. eigenvalues --    1.92931   1.93868   1.98388   2.00182   2.05691
  Beta virt. eigenvalues --    2.07190   2.08309   2.11841   2.16771   2.25646
  Beta virt. eigenvalues --    2.26928   2.31944   2.36983   2.44445   2.53709
  Beta virt. eigenvalues --    2.62749   2.79131   2.81312   2.81587   2.81797
  Beta virt. eigenvalues --    2.82431   2.86663   2.88396   2.88484   2.90826
  Beta virt. eigenvalues --    2.93137   2.93232   2.93244   2.93483   2.93669
  Beta virt. eigenvalues --    2.93838   2.94499   2.95695   2.96379   2.97538
  Beta virt. eigenvalues --    2.97859   2.98767   3.05232   3.07775   3.24235
  Beta virt. eigenvalues --    3.32245   3.32832   3.34761   3.45580   3.46621
  Beta virt. eigenvalues --    3.47136   3.47616   3.49074   3.49552   3.50544
  Beta virt. eigenvalues --    3.50688   3.53161   3.53962   3.56733   3.76089
  Beta virt. eigenvalues --    3.76255   3.78617   3.78868   3.82144   3.84923
  Beta virt. eigenvalues --    3.85645   3.87152   3.87783   3.91305   3.91313
  Beta virt. eigenvalues --    3.92871   3.95493   3.98949   4.03019   4.04048
  Beta virt. eigenvalues --    4.11030   4.14081   4.24968   4.42859   4.63974
  Beta virt. eigenvalues --    5.14034   5.14111   5.14306   5.16292   5.16296
  Beta virt. eigenvalues --    5.18300   5.18574   5.19113   5.27016   5.28238
  Beta virt. eigenvalues --    5.74125   5.75451   5.75594   5.77321   5.79326
  Beta virt. eigenvalues --    6.93822   6.97221   7.01002   7.02630   7.13036
  Beta virt. eigenvalues --    7.14384   7.20029   7.23859   7.23880   7.47768
  Beta virt. eigenvalues --    8.92330   9.12436   9.19613   9.36559   9.39366
  Beta virt. eigenvalues --    9.56918  23.99660  24.00839  24.01762  24.03137
  Beta virt. eigenvalues --   24.04761  30.10467  30.41129  36.45194  36.59823
  Beta virt. eigenvalues --   36.65010  36.77051  36.80495  36.95163  50.07804
  Beta virt. eigenvalues --   50.13760  50.14107  50.15737  50.16201 162.49384
  Beta virt. eigenvalues --  162.74679 845.20537 845.46237
          Condensed to atoms (all electrons):
              1          2          3          4          5          6
     1  Ni  28.159668  -0.041320  -0.574221   0.082211  -0.081368  -0.081368
     2  Ni  -0.041320  27.966387  -0.256963  -0.139398   0.003075   0.003075
     3  C   -0.574221  -0.256963   7.590721  -0.122649  -0.101650  -0.101650
     4  C    0.082211  -0.139398  -0.122649   5.718676   0.083665   0.083665
     5  C   -0.081368   0.003075  -0.101650   0.083665   6.258832   0.099748
     6  C   -0.081368   0.003075  -0.101650   0.083665   0.099748   6.258832
     7  C    0.082211  -0.139398  -0.122649   0.153531   0.083665   0.083665
     8  O   -0.000782  -0.025297   0.002586   0.357478  -0.016276  -0.016276
     9  O    0.015113  -0.020236   0.003214  -0.002665  -0.008345  -0.009214
    10  O    0.015113  -0.020236   0.003214  -0.002665  -0.009214  -0.008345
    11  O   -0.000782  -0.025297   0.002586  -0.017588  -0.016276  -0.016276
    12  O    0.060559   0.020524  -0.095301   0.000533   0.002007   0.002007
              7          8          9         10         11         12
     1  Ni   0.082211  -0.000782   0.015113   0.015113  -0.000782   0.060559
     2  Ni  -0.139398  -0.025297  -0.020236  -0.020236  -0.025297   0.020524
     3  C   -0.122649   0.002586   0.003214   0.003214   0.002586  -0.095301
     4  C    0.153531   0.357478  -0.002665  -0.002665  -0.017588   0.000533
     5  C    0.083665  -0.016276  -0.008345  -0.009214  -0.016276   0.002007
     6  C    0.083665  -0.016276  -0.009214  -0.008345  -0.016276   0.002007
     7  C    5.718676  -0.017588  -0.002665  -0.002665   0.357478   0.000533
     8  O   -0.017588   7.929859   0.001736   0.001736   0.000203   0.001956
     9  O   -0.002665   0.001736   8.142959   0.001770   0.001736  -0.000006
    10  O   -0.002665   0.001736   0.001770   8.142959   0.001736  -0.000006
    11  O    0.357478   0.000203   0.001736   0.001736   7.929859   0.001956
    12  O    0.000533   0.001956  -0.000006  -0.000006   0.001956   8.147263
 Mulliken atomic charges:
              1
     1  Ni   0.364965
     2  Ni   0.675083
     3  C   -0.227238
     4  C   -0.194795
     5  C   -0.297865
     6  C   -0.297865
     7  C   -0.194795
     8  O   -0.219336
     9  O   -0.123397
    10  O   -0.123397
    11  O   -0.219336
    12  O   -0.142023
 Sum of Mulliken atomic charges =  -1.00000
 Mulliken charges with hydrogens summed into heavy atoms:
              1
     1  Ni   0.364965
     2  Ni   0.675083
     3  C   -0.227238
     4  C   -0.194795
     5  C   -0.297865
     6  C   -0.297865
     7  C   -0.194795
     8  O   -0.219336
     9  O   -0.123397
    10  O   -0.123397
    11  O   -0.219336
    12  O   -0.142023
 Sum of Mulliken charges with hydrogens summed into heavy atoms =  -1.00000
          Atomic-Atomic Spin Densities.
              1          2          3          4          5          6
     1  Ni   0.075256  -0.095106   0.018990   0.023428  -0.010801  -0.010801
     2  Ni  -0.095106   0.099417  -0.012748   0.046139   0.052272   0.052272
     3  C    0.018990  -0.012748   0.070833   0.009724  -0.000822  -0.000822
     4  C    0.023428   0.046139   0.009724   0.111650   0.009803   0.009803
     5  C   -0.010801   0.052272  -0.000822   0.009803   0.067873   0.016684
     6  C   -0.010801   0.052272  -0.000822   0.009803   0.016684   0.067873
     7  C    0.023428   0.046139   0.009724   0.001601   0.009803   0.009803
     8  O   -0.017631  -0.021759  -0.001598  -0.080757  -0.003047  -0.003047
     9  O    0.002894  -0.019105   0.000011  -0.000340  -0.038240   0.000095
    10  O    0.002894  -0.019105   0.000011  -0.000340   0.000095  -0.038240
    11  O   -0.017631  -0.021759  -0.001598  -0.001581  -0.003047  -0.003047
    12  O   -0.009976   0.000720  -0.018465   0.000193   0.000015   0.000015
              7          8          9         10         11         12
     1  Ni   0.023428  -0.017631   0.002894   0.002894  -0.017631  -0.009976
     2  Ni   0.046139  -0.021759  -0.019105  -0.019105  -0.021759   0.000720
     3  C    0.009724  -0.001598   0.000011   0.000011  -0.001598  -0.018465
     4  C    0.001601  -0.080757  -0.000340  -0.000340  -0.001581   0.000193
     5  C    0.009803  -0.003047  -0.038240   0.000095  -0.003047   0.000015
     6  C    0.009803  -0.003047   0.000095  -0.038240  -0.003047   0.000015
     7  C    0.111650  -0.001581  -0.000340  -0.000340  -0.080757   0.000193
     8  O   -0.001581   0.242434   0.001014   0.001014  -0.000068   0.000695
     9  O   -0.000340   0.001014   0.107747  -0.000013   0.001014  -0.000002
    10  O   -0.000340   0.001014  -0.000013   0.107747   0.001014  -0.000002
    11  O   -0.080757  -0.000068   0.001014   0.001014   0.242434   0.000695
    12  O    0.000193   0.000695  -0.000002  -0.000002   0.000695   0.059726
 Mulliken atomic spin densities:
              1
     1  Ni  -0.015056
     2  Ni   0.107378
     3  C    0.073242
     4  C    0.129323
     5  C    0.100588
     6  C    0.100588
     7  C    0.129323
     8  O    0.115669
     9  O    0.054735
    10  O    0.054735
    11  O    0.115669
    12  O    0.033808
 Sum of Mulliken atomic spin densities =   1.00000
 Electronic spatial extent (au):  <R**2>=           2787.1278
 Charge=             -1.0000 electrons
 Dipole moment (field-independent basis, Debye):
    X=              0.0000    Y=              0.0000    Z=             -0.0123  Tot=              0.0123
 Quadrupole moment (field-independent basis, Debye-Ang):
   XX=            -94.9338   YY=           -102.2927   ZZ=           -115.4413
   XY=              0.0000   XZ=              0.0000   YZ=              0.0000
 Traceless Quadrupole moment (field-independent basis, Debye-Ang):
   XX=              9.2887   YY=              1.9299   ZZ=            -11.2187
   XY=              0.0000   XZ=              0.0000   YZ=              0.0000
 Octapole moment (field-independent basis, Debye-Ang**2):
  XXX=              0.0000  YYY=              0.0000  ZZZ=            -43.2296  XYY=              0.0000
  XXY=              0.0000  XXZ=             38.5804  XZZ=              0.0000  YZZ=              0.0000
  YYZ=             -1.0798  XYZ=              0.0000
 Hexadecapole moment (field-independent basis, Debye-Ang**3):
 XXXX=           -754.8119 YYYY=           -935.4759 ZZZZ=          -2449.1306 XXXY=              0.0000
 XXXZ=              0.0000 YYYX=              0.0000 YYYZ=              0.0000 ZZZX=              0.0000
 ZZZY=              0.0000 XXYY=           -231.7163 XXZZ=           -538.6947 YYZZ=           -456.9058
 XXYZ=              0.0000 YYXZ=              0.0000 ZZXY=              0.0000
 N-N= 1.275521438913D+03 E-N=-1.665236466095D+04  KE= 5.369151739988D+03
 Symmetry A1   KE= 3.864216386342D+03
 Symmetry A2   KE= 5.869745434161D+01
 Symmetry B1   KE= 7.218361002866D+02
 Symmetry B2   KE= 7.244017990180D+02
                          Isotropic Fermi Contact Couplings
        Atom                 a.u.       MegaHertz       Gauss      10(-4) cm-1
     1  Ni(61)             0.04964     -19.86348      -7.08778      -6.62574
     2  Ni(61)             0.06370     -25.48710      -9.09443      -8.50158
     3  C(13)             -0.00910     -10.22676      -3.64916      -3.41128
     4  C(13)             -0.01182     -13.28821      -4.74156      -4.43247
     5  C(13)             -0.00957     -10.76064      -3.83966      -3.58936
     6  C(13)             -0.00957     -10.76064      -3.83966      -3.58936
     7  C(13)             -0.01182     -13.28821      -4.74156      -4.43247
     8  O(17)              0.01432      -8.67855      -3.09672      -2.89485
     9  O(17)              0.00448      -2.71591      -0.96910      -0.90593
    10  O(17)              0.00448      -2.71591      -0.96910      -0.90593
    11  O(17)              0.01432      -8.67855      -3.09672      -2.89485
    12  O(17)              0.00100      -0.60414      -0.21557      -0.20152
 --------------------------------------------------------
       Center         ----  Spin Dipole Couplings  ----
                      3XX-RR        3YY-RR        3ZZ-RR
 --------------------------------------------------------
     1   Atom        0.107237      0.296191     -0.403428
     2   Atom       -0.339730      0.668957     -0.329227
     3   Atom       -0.026906      0.061409     -0.034503
     4   Atom       -0.110975     -0.105609      0.216584
     5   Atom       -0.057377      0.114960     -0.057583
     6   Atom       -0.057377      0.114960     -0.057583
     7   Atom       -0.110975     -0.105609      0.216584
     8   Atom       -0.302358     -0.338725      0.641082
     9   Atom       -0.138158      0.268561     -0.130404
    10   Atom       -0.138158      0.268561     -0.130404
    11   Atom       -0.302358     -0.338725      0.641082
    12   Atom       -0.057952      0.148117     -0.090165
 --------------------------------------------------------
                        XY            XZ            YZ
 --------------------------------------------------------
     1   Atom        0.000000      0.000000      0.000000
     2   Atom        0.000000      0.000000      0.000000
     3   Atom        0.000000      0.000000      0.000000
     4   Atom        0.000000      0.000000      0.003608
     5   Atom        0.000000     -0.002842      0.000000
     6   Atom        0.000000      0.002842      0.000000
     7   Atom        0.000000      0.000000     -0.003608
     8   Atom        0.000000      0.000000      0.079960
     9   Atom        0.000000     -0.014116      0.000000
    10   Atom        0.000000      0.014116      0.000000
    11   Atom        0.000000      0.000000     -0.079960
    12   Atom        0.000000      0.000000      0.000000
 --------------------------------------------------------


 ---------------------------------------------------------------------------------
              Anisotropic Spin Dipole Couplings in Principal Axis System
 ---------------------------------------------------------------------------------

       Atom             a.u.   MegaHertz   Gauss  10(-4) cm-1        Axes

              Baa    -0.4034    19.268     6.875     6.427  0.0000  0.0000  1.0000
     1 Ni(61) Bbb     0.1072    -5.122    -1.828    -1.708  1.0000  0.0000  0.0000
              Bcc     0.2962   -14.147    -5.048    -4.719  0.0000  1.0000  0.0000
 
              Baa    -0.3397    16.226     5.790     5.412  1.0000  0.0000  0.0000
     2 Ni(61) Bbb    -0.3292    15.725     5.611     5.245  0.0000  0.0000  1.0000
              Bcc     0.6690   -31.951   -11.401   -10.658  0.0000  1.0000  0.0000
 
              Baa    -0.0345    -4.630    -1.652    -1.544  0.0000  0.0000  1.0000
     3 C(13)  Bbb    -0.0269    -3.610    -1.288    -1.204  1.0000  0.0000  0.0000
              Bcc     0.0614     8.240     2.940     2.749  0.0000  1.0000  0.0000
 
              Baa    -0.1110   -14.892    -5.314    -4.967  1.0000  0.0000  0.0000
     4 C(13)  Bbb    -0.1056   -14.177    -5.059    -4.729  0.0000  0.9999 -0.0112
              Bcc     0.2166    29.069    10.373     9.696  0.0000  0.0112  0.9999
 
              Baa    -0.0603    -8.095    -2.888    -2.700  0.6942  0.0000  0.7198
     5 C(13)  Bbb    -0.0546    -7.332    -2.616    -2.446  0.7198  0.0000 -0.6942
              Bcc     0.1150    15.427     5.505     5.146  0.0000  1.0000  0.0000
 
              Baa    -0.0603    -8.095    -2.888    -2.700 -0.6942  0.0000  0.7198
     6 C(13)  Bbb    -0.0546    -7.332    -2.616    -2.446  0.7198  0.0000  0.6942
              Bcc     0.1150    15.427     5.505     5.146  0.0000  1.0000  0.0000
 
              Baa    -0.1110   -14.892    -5.314    -4.967  1.0000  0.0000  0.0000
     7 C(13)  Bbb    -0.1056   -14.177    -5.059    -4.729  0.0000  0.9999  0.0112
              Bcc     0.2166    29.069    10.373     9.696  0.0000 -0.0112  0.9999
 
              Baa    -0.3452    24.979     8.913     8.332  0.0000  0.9967 -0.0808
     8 O(17)  Bbb    -0.3024    21.878     7.807     7.298  1.0000  0.0000  0.0000
              Bcc     0.6476   -46.857   -16.720   -15.630  0.0000  0.0808  0.9967
 
              Baa    -0.1489    10.776     3.845     3.594  0.7953  0.0000  0.6063
     9 O(17)  Bbb    -0.1196     8.657     3.089     2.888 -0.6063  0.0000  0.7953
              Bcc     0.2686   -19.433    -6.934    -6.482  0.0000  1.0000  0.0000
 
              Baa    -0.1489    10.776     3.845     3.594  0.7953  0.0000 -0.6063
    10 O(17)  Bbb    -0.1196     8.657     3.089     2.888  0.6063  0.0000  0.7953
              Bcc     0.2686   -19.433    -6.934    -6.482  0.0000  1.0000  0.0000
 
              Baa    -0.3452    24.979     8.913     8.332  0.0000  0.9967  0.0808
    11 O(17)  Bbb    -0.3024    21.878     7.807     7.298  1.0000  0.0000  0.0000
              Bcc     0.6476   -46.857   -16.720   -15.630  0.0000 -0.0808  0.9967
 
              Baa    -0.0902     6.524     2.328     2.176  0.0000  0.0000  1.0000
    12 O(17)  Bbb    -0.0580     4.193     1.496     1.399  1.0000  0.0000  0.0000
              Bcc     0.1481   -10.718    -3.824    -3.575  0.0000  1.0000  0.0000
 

 ---------------------------------------------------------------------------------

 ******************************Gaussian NBO Version 3.1******************************
             N A T U R A L   A T O M I C   O R B I T A L   A N D
          N A T U R A L   B O N D   O R B I T A L   A N A L Y S I S
 ******************************Gaussian NBO Version 3.1******************************

       /RESON  / : Allow strongly delocalized NBO set
       /BNDIDX / : Print bond indices based on the NAO density matrix

 Analyzing the SCF density

 Job title: from Ni2CO5-_221_A_2th_2                                        

 Storage needed:    340422 in NPA,    452794 in NBO (  52428299 available)


 NATURAL POPULATIONS:  Natural atomic orbital occupancies 
                                                          
   NAO  Atom  No  lang   Type(AO)    Occupancy
 --------------------------------------------
     1   Ni    1  S      Cor( 1S)     2.00000
     2   Ni    1  S      Cor( 2S)     2.00000
     3   Ni    1  S      Cor( 3S)     1.99115
     4   Ni    1  S      Val( 4S)     0.44334
     5   Ni    1  S      Ryd( 5S)     0.00104
     6   Ni    1  S      Ryd( 6S)     0.00019
     7   Ni    1  S      Ryd( 7S)     0.00012
     8   Ni    1  S      Ryd( 8S)     0.00000
     9   Ni    1  S      Ryd(10S)     0.00000
    10   Ni    1  S      Ryd( 9S)     0.00000
    11   Ni    1  px     Cor( 2p)     2.00000
    12   Ni    1  px     Cor( 3p)     1.99743
    13   Ni    1  px     Val( 4p)     0.04365
    14   Ni    1  px     Ryd( 5p)     0.00019
    15   Ni    1  px     Ryd( 6p)     0.00005
    16   Ni    1  px     Ryd( 7p)     0.00000
    17   Ni    1  px     Ryd( 8p)     0.00000
    18   Ni    1  py     Cor( 2p)     2.00000
    19   Ni    1  py     Cor( 3p)     1.99790
    20   Ni    1  py     Val( 4p)     0.34130
    21   Ni    1  py     Ryd( 5p)     0.00075
    22   Ni    1  py     Ryd( 6p)     0.00013
    23   Ni    1  py     Ryd( 7p)     0.00002
    24   Ni    1  py     Ryd( 8p)     0.00000
    25   Ni    1  pz     Cor( 2p)     2.00000
    26   Ni    1  pz     Cor( 3p)     1.99573
    27   Ni    1  pz     Val( 4p)     0.31693
    28   Ni    1  pz     Ryd( 5p)     0.00093
    29   Ni    1  pz     Ryd( 6p)     0.00042
    30   Ni    1  pz     Ryd( 7p)     0.00003
    31   Ni    1  pz     Ryd( 8p)     0.00000
    32   Ni    1  dxy    Val( 3d)     1.92182
    33   Ni    1  dxy    Ryd( 4d)     0.00272
    34   Ni    1  dxy    Ryd( 5d)     0.00004
    35   Ni    1  dxy    Ryd( 6d)     0.00000
    36   Ni    1  dxz    Val( 3d)     1.85171
    37   Ni    1  dxz    Ryd( 4d)     0.00131
    38   Ni    1  dxz    Ryd( 5d)     0.00013
    39   Ni    1  dxz    Ryd( 6d)     0.00001
    40   Ni    1  dyz    Val( 3d)     1.78059
    41   Ni    1  dyz    Ryd( 4d)     0.00216
    42   Ni    1  dyz    Ryd( 5d)     0.00010
    43   Ni    1  dyz    Ryd( 6d)     0.00002
    44   Ni    1  dx2y2  Val( 3d)     1.88423
    45   Ni    1  dx2y2  Ryd( 4d)     0.00109
    46   Ni    1  dx2y2  Ryd( 5d)     0.00012
    47   Ni    1  dx2y2  Ryd( 6d)     0.00001
    48   Ni    1  dz2    Val( 3d)     1.78748
    49   Ni    1  dz2    Ryd( 4d)     0.00412
    50   Ni    1  dz2    Ryd( 5d)     0.00012
    51   Ni    1  dz2    Ryd( 6d)     0.00003
    52   Ni    1  f(0)   Ryd( 4f)     0.00004
    53   Ni    1  f(C1)  Ryd( 4f)     0.00003
    54   Ni    1  f(S1)  Ryd( 4f)     0.00004
    55   Ni    1  f(C2)  Ryd( 4f)     0.00005
    56   Ni    1  f(S2)  Ryd( 4f)     0.00002
    57   Ni    1  f(C3)  Ryd( 4f)     0.00001
    58   Ni    1  f(S3)  Ryd( 4f)     0.00002

    59   Ni    2  S      Cor( 1S)     2.00000
    60   Ni    2  S      Cor( 2S)     2.00000
    61   Ni    2  S      Cor( 3S)     1.99123
    62   Ni    2  S      Val( 4S)     0.42952
    63   Ni    2  S      Ryd( 5S)     0.00258
    64   Ni    2  S      Ryd( 6S)     0.00017
    65   Ni    2  S      Ryd( 7S)     0.00008
    66   Ni    2  S      Ryd( 8S)     0.00000
    67   Ni    2  S      Ryd(10S)     0.00000
    68   Ni    2  S      Ryd( 9S)     0.00000
    69   Ni    2  px     Cor( 2p)     2.00000
    70   Ni    2  px     Cor( 3p)     1.99787
    71   Ni    2  px     Val( 4p)     0.50489
    72   Ni    2  px     Ryd( 5p)     0.00086
    73   Ni    2  px     Ryd( 6p)     0.00013
    74   Ni    2  px     Ryd( 7p)     0.00002
    75   Ni    2  px     Ryd( 8p)     0.00000
    76   Ni    2  py     Cor( 2p)     2.00000
    77   Ni    2  py     Cor( 3p)     1.99774
    78   Ni    2  py     Val( 4p)     0.40376
    79   Ni    2  py     Ryd( 5p)     0.00126
    80   Ni    2  py     Ryd( 6p)     0.00018
    81   Ni    2  py     Ryd( 7p)     0.00001
    82   Ni    2  py     Ryd( 8p)     0.00000
    83   Ni    2  pz     Cor( 2p)     2.00000
    84   Ni    2  pz     Cor( 3p)     1.99728
    85   Ni    2  pz     Val( 4p)     0.40693
    86   Ni    2  pz     Ryd( 5p)     0.00091
    87   Ni    2  pz     Ryd( 6p)     0.00069
    88   Ni    2  pz     Ryd( 7p)     0.00001
    89   Ni    2  pz     Ryd( 8p)     0.00000
    90   Ni    2  dxy    Val( 3d)     1.87605
    91   Ni    2  dxy    Ryd( 4d)     0.00119
    92   Ni    2  dxy    Ryd( 5d)     0.00005
    93   Ni    2  dxy    Ryd( 6d)     0.00000
    94   Ni    2  dxz    Val( 3d)     1.76755
    95   Ni    2  dxz    Ryd( 4d)     0.00208
    96   Ni    2  dxz    Ryd( 5d)     0.00014
    97   Ni    2  dxz    Ryd( 6d)     0.00003
    98   Ni    2  dyz    Val( 3d)     1.84451
    99   Ni    2  dyz    Ryd( 4d)     0.00099
   100   Ni    2  dyz    Ryd( 5d)     0.00012
   101   Ni    2  dyz    Ryd( 6d)     0.00002
   102   Ni    2  dx2y2  Val( 3d)     1.82903
   103   Ni    2  dx2y2  Ryd( 4d)     0.00247
   104   Ni    2  dx2y2  Ryd( 5d)     0.00007
   105   Ni    2  dx2y2  Ryd( 6d)     0.00003
   106   Ni    2  dz2    Val( 3d)     1.87231
   107   Ni    2  dz2    Ryd( 4d)     0.00274
   108   Ni    2  dz2    Ryd( 5d)     0.00010
   109   Ni    2  dz2    Ryd( 6d)     0.00001
   110   Ni    2  f(0)   Ryd( 4f)     0.00005
   111   Ni    2  f(C1)  Ryd( 4f)     0.00002
   112   Ni    2  f(S1)  Ryd( 4f)     0.00003
   113   Ni    2  f(C2)  Ryd( 4f)     0.00004
   114   Ni    2  f(S2)  Ryd( 4f)     0.00001
   115   Ni    2  f(C3)  Ryd( 4f)     0.00002
   116   Ni    2  f(S3)  Ryd( 4f)     0.00003

   117    C    3  S      Cor( 1S)     1.99900
   118    C    3  S      Val( 2S)     1.26278
   119    C    3  S      Ryd( 3S)     0.04491
   120    C    3  S      Ryd( 4S)     0.00007
   121    C    3  S      Ryd( 5S)     0.00001
   122    C    3  px     Val( 2p)     0.58025
   123    C    3  px     Ryd( 3p)     0.00149
   124    C    3  px     Ryd( 4p)     0.00014
   125    C    3  px     Ryd( 5p)     0.00004
   126    C    3  py     Val( 2p)     0.66209
   127    C    3  py     Ryd( 3p)     0.00261
   128    C    3  py     Ryd( 4p)     0.00017
   129    C    3  py     Ryd( 5p)     0.00009
   130    C    3  pz     Val( 2p)     0.86111
   131    C    3  pz     Ryd( 3p)     0.01710
   132    C    3  pz     Ryd( 4p)     0.00035
   133    C    3  pz     Ryd( 5p)     0.00023
   134    C    3  dxy    Ryd( 3d)     0.00007
   135    C    3  dxz    Ryd( 3d)     0.00421
   136    C    3  dyz    Ryd( 3d)     0.00432
   137    C    3  dx2y2  Ryd( 3d)     0.00006
   138    C    3  dz2    Ryd( 3d)     0.00132

   139    C    4  S      Cor( 1S)     1.99929
   140    C    4  S      Val( 2S)     1.17987
   141    C    4  S      Ryd( 3S)     0.03859
   142    C    4  S      Ryd( 4S)     0.00084
   143    C    4  S      Ryd( 5S)     0.00001
   144    C    4  px     Val( 2p)     0.59088
   145    C    4  px     Ryd( 3p)     0.00351
   146    C    4  px     Ryd( 4p)     0.00019
   147    C    4  px     Ryd( 5p)     0.00010
   148    C    4  py     Val( 2p)     0.81669
   149    C    4  py     Ryd( 3p)     0.02019
   150    C    4  py     Ryd( 4p)     0.00035
   151    C    4  py     Ryd( 5p)     0.00017
   152    C    4  pz     Val( 2p)     0.81106
   153    C    4  pz     Ryd( 3p)     0.00635
   154    C    4  pz     Ryd( 4p)     0.00033
   155    C    4  pz     Ryd( 5p)     0.00008
   156    C    4  dxy    Ryd( 3d)     0.00404
   157    C    4  dxz    Ryd( 3d)     0.00027
   158    C    4  dyz    Ryd( 3d)     0.00334
   159    C    4  dx2y2  Ryd( 3d)     0.00116
   160    C    4  dz2    Ryd( 3d)     0.00109

   161    C    5  S      Cor( 1S)     1.99907
   162    C    5  S      Val( 2S)     1.22033
   163    C    5  S      Ryd( 3S)     0.04639
   164    C    5  S      Ryd( 4S)     0.00006
   165    C    5  S      Ryd( 5S)     0.00001
   166    C    5  px     Val( 2p)     0.75160
   167    C    5  px     Ryd( 3p)     0.01287
   168    C    5  px     Ryd( 4p)     0.00059
   169    C    5  px     Ryd( 5p)     0.00014
   170    C    5  py     Val( 2p)     0.64155
   171    C    5  py     Ryd( 3p)     0.00454
   172    C    5  py     Ryd( 4p)     0.00026
   173    C    5  py     Ryd( 5p)     0.00012
   174    C    5  pz     Val( 2p)     0.65650
   175    C    5  pz     Ryd( 3p)     0.00576
   176    C    5  pz     Ryd( 4p)     0.00029
   177    C    5  pz     Ryd( 5p)     0.00012
   178    C    5  dxy    Ryd( 3d)     0.00292
   179    C    5  dxz    Ryd( 3d)     0.00155
   180    C    5  dyz    Ryd( 3d)     0.00127
   181    C    5  dx2y2  Ryd( 3d)     0.00138
   182    C    5  dz2    Ryd( 3d)     0.00266

   183    C    6  S      Cor( 1S)     1.99907
   184    C    6  S      Val( 2S)     1.22033
   185    C    6  S      Ryd( 3S)     0.04639
   186    C    6  S      Ryd( 4S)     0.00006
   187    C    6  S      Ryd( 5S)     0.00001
   188    C    6  px     Val( 2p)     0.75160
   189    C    6  px     Ryd( 3p)     0.01287
   190    C    6  px     Ryd( 4p)     0.00059
   191    C    6  px     Ryd( 5p)     0.00014
   192    C    6  py     Val( 2p)     0.64155
   193    C    6  py     Ryd( 3p)     0.00454
   194    C    6  py     Ryd( 4p)     0.00026
   195    C    6  py     Ryd( 5p)     0.00012
   196    C    6  pz     Val( 2p)     0.65650
   197    C    6  pz     Ryd( 3p)     0.00576
   198    C    6  pz     Ryd( 4p)     0.00029
   199    C    6  pz     Ryd( 5p)     0.00012
   200    C    6  dxy    Ryd( 3d)     0.00292
   201    C    6  dxz    Ryd( 3d)     0.00155
   202    C    6  dyz    Ryd( 3d)     0.00127
   203    C    6  dx2y2  Ryd( 3d)     0.00138
   204    C    6  dz2    Ryd( 3d)     0.00266

   205    C    7  S      Cor( 1S)     1.99929
   206    C    7  S      Val( 2S)     1.17987
   207    C    7  S      Ryd( 3S)     0.03859
   208    C    7  S      Ryd( 4S)     0.00084
   209    C    7  S      Ryd( 5S)     0.00001
   210    C    7  px     Val( 2p)     0.59088
   211    C    7  px     Ryd( 3p)     0.00351
   212    C    7  px     Ryd( 4p)     0.00019
   213    C    7  px     Ryd( 5p)     0.00010
   214    C    7  py     Val( 2p)     0.81669
   215    C    7  py     Ryd( 3p)     0.02019
   216    C    7  py     Ryd( 4p)     0.00035
   217    C    7  py     Ryd( 5p)     0.00017
   218    C    7  pz     Val( 2p)     0.81106
   219    C    7  pz     Ryd( 3p)     0.00635
   220    C    7  pz     Ryd( 4p)     0.00033
   221    C    7  pz     Ryd( 5p)     0.00008
   222    C    7  dxy    Ryd( 3d)     0.00404
   223    C    7  dxz    Ryd( 3d)     0.00027
   224    C    7  dyz    Ryd( 3d)     0.00334
   225    C    7  dx2y2  Ryd( 3d)     0.00116
   226    C    7  dz2    Ryd( 3d)     0.00109

   227    O    8  S      Cor( 1S)     1.99973
   228    O    8  S      Val( 2S)     1.69440
   229    O    8  S      Ryd( 3S)     0.00418
   230    O    8  S      Ryd( 4S)     0.00004
   231    O    8  S      Ryd( 5S)     0.00000
   232    O    8  px     Val( 2p)     1.51538
   233    O    8  px     Ryd( 3p)     0.00094
   234    O    8  px     Ryd( 5p)     0.00001
   235    O    8  px     Ryd( 4p)     0.00002
   236    O    8  py     Val( 2p)     1.66514
   237    O    8  py     Ryd( 3p)     0.00067
   238    O    8  py     Ryd( 4p)     0.00016
   239    O    8  py     Ryd( 5p)     0.00011
   240    O    8  pz     Val( 2p)     1.61633
   241    O    8  pz     Ryd( 3p)     0.00540
   242    O    8  pz     Ryd( 4p)     0.00008
   243    O    8  pz     Ryd( 5p)     0.00002
   244    O    8  dxy    Ryd( 3d)     0.00182
   245    O    8  dxz    Ryd( 3d)     0.00002
   246    O    8  dyz    Ryd( 3d)     0.00170
   247    O    8  dx2y2  Ryd( 3d)     0.00152
   248    O    8  dz2    Ryd( 3d)     0.00057

   249    O    9  S      Cor( 1S)     1.99972
   250    O    9  S      Val( 2S)     1.70198
   251    O    9  S      Ryd( 3S)     0.00727
   252    O    9  S      Ryd( 4S)     0.00005
   253    O    9  S      Ryd( 5S)     0.00000
   254    O    9  px     Val( 2p)     1.63304
   255    O    9  px     Ryd( 3p)     0.00075
   256    O    9  px     Ryd( 4p)     0.00027
   257    O    9  px     Ryd( 5p)     0.00006
   258    O    9  py     Val( 2p)     1.58045
   259    O    9  py     Ryd( 3p)     0.00243
   260    O    9  py     Ryd( 4p)     0.00002
   261    O    9  py     Ryd( 5p)     0.00001
   262    O    9  pz     Val( 2p)     1.59262
   263    O    9  pz     Ryd( 3p)     0.00111
   264    O    9  pz     Ryd( 4p)     0.00012
   265    O    9  pz     Ryd( 5p)     0.00003
   266    O    9  dxy    Ryd( 3d)     0.00133
   267    O    9  dxz    Ryd( 3d)     0.00169
   268    O    9  dyz    Ryd( 3d)     0.00058
   269    O    9  dx2y2  Ryd( 3d)     0.00121
   270    O    9  dz2    Ryd( 3d)     0.00122

   271    O   10  S      Cor( 1S)     1.99972
   272    O   10  S      Val( 2S)     1.70198
   273    O   10  S      Ryd( 3S)     0.00727
   274    O   10  S      Ryd( 4S)     0.00005
   275    O   10  S      Ryd( 5S)     0.00000
   276    O   10  px     Val( 2p)     1.63304
   277    O   10  px     Ryd( 3p)     0.00075
   278    O   10  px     Ryd( 4p)     0.00027
   279    O   10  px     Ryd( 5p)     0.00006
   280    O   10  py     Val( 2p)     1.58045
   281    O   10  py     Ryd( 3p)     0.00243
   282    O   10  py     Ryd( 4p)     0.00002
   283    O   10  py     Ryd( 5p)     0.00001
   284    O   10  pz     Val( 2p)     1.59262
   285    O   10  pz     Ryd( 3p)     0.00111
   286    O   10  pz     Ryd( 4p)     0.00012
   287    O   10  pz     Ryd( 5p)     0.00003
   288    O   10  dxy    Ryd( 3d)     0.00133
   289    O   10  dxz    Ryd( 3d)     0.00169
   290    O   10  dyz    Ryd( 3d)     0.00058
   291    O   10  dx2y2  Ryd( 3d)     0.00121
   292    O   10  dz2    Ryd( 3d)     0.00122

   293    O   11  S      Cor( 1S)     1.99973
   294    O   11  S      Val( 2S)     1.69440
   295    O   11  S      Ryd( 3S)     0.00418
   296    O   11  S      Ryd( 4S)     0.00004
   297    O   11  S      Ryd( 5S)     0.00000
   298    O   11  px     Val( 2p)     1.51538
   299    O   11  px     Ryd( 3p)     0.00094
   300    O   11  px     Ryd( 5p)     0.00001
   301    O   11  px     Ryd( 4p)     0.00002
   302    O   11  py     Val( 2p)     1.66514
   303    O   11  py     Ryd( 3p)     0.00067
   304    O   11  py     Ryd( 4p)     0.00016
   305    O   11  py     Ryd( 5p)     0.00011
   306    O   11  pz     Val( 2p)     1.61633
   307    O   11  pz     Ryd( 3p)     0.00540
   308    O   11  pz     Ryd( 4p)     0.00008
   309    O   11  pz     Ryd( 5p)     0.00002
   310    O   11  dxy    Ryd( 3d)     0.00182
   311    O   11  dxz    Ryd( 3d)     0.00002
   312    O   11  dyz    Ryd( 3d)     0.00170
   313    O   11  dx2y2  Ryd( 3d)     0.00152
   314    O   11  dz2    Ryd( 3d)     0.00057

   315    O   12  S      Cor( 1S)     1.99973
   316    O   12  S      Val( 2S)     1.70365
   317    O   12  S      Ryd( 3S)     0.00333
   318    O   12  S      Ryd( 4S)     0.00004
   319    O   12  S      Ryd( 5S)     0.00000
   320    O   12  px     Val( 2p)     1.54815
   321    O   12  px     Ryd( 3p)     0.00110
   322    O   12  px     Ryd( 4p)     0.00002
   323    O   12  px     Ryd( 5p)     0.00001
   324    O   12  py     Val( 2p)     1.60608
   325    O   12  py     Ryd( 3p)     0.00213
   326    O   12  py     Ryd( 4p)     0.00006
   327    O   12  py     Ryd( 5p)     0.00001
   328    O   12  pz     Val( 2p)     1.65603
   329    O   12  pz     Ryd( 3p)     0.00066
   330    O   12  pz     Ryd( 4p)     0.00035
   331    O   12  pz     Ryd( 5p)     0.00008
   332    O   12  dxy    Ryd( 3d)     0.00000
   333    O   12  dxz    Ryd( 3d)     0.00188
   334    O   12  dyz    Ryd( 3d)     0.00186
   335    O   12  dx2y2  Ryd( 3d)     0.00000
   336    O   12  dz2    Ryd( 3d)     0.00208

 WARNING:  4 low occupancy (<1.9990e) core orbitals found on Ni    1
           4 low occupancy (<1.9990e) core orbitals found on Ni    2
           1 low occupancy (<1.9990e) core orbital  found on  C    3


 Summary of Natural Population Analysis:                  
                                                          
                                       Natural Population 
                Natural  -----------------------------------------------
    Atom  No    Charge         Core      Valence    Rydberg      Total
 -----------------------------------------------------------------------
     Ni    1   -0.36932     17.98221    10.37105    0.01605    28.36932
     Ni    2   -0.93581     17.98411    10.93456    0.01715    28.93581
      C    3    0.55758      1.99900     3.36623    0.07720     5.44242
      C    4    0.52159      1.99929     3.39851    0.08061     5.47841
      C    5    0.65003      1.99907     3.26997    0.08093     5.34997
      C    6    0.65003      1.99907     3.26997    0.08093     5.34997
      C    7    0.52159      1.99929     3.39851    0.08061     5.47841
      O    8   -0.50825      1.99973     6.49125    0.01727     8.50825
      O    9   -0.52597      1.99972     6.50809    0.01816     8.52597
      O   10   -0.52597      1.99972     6.50809    0.01816     8.52597
      O   11   -0.50825      1.99973     6.49125    0.01727     8.50825
      O   12   -0.52726      1.99973     6.51391    0.01362     8.52726
 =======================================================================
   * Total *   -1.00000     55.96066    70.52139    0.51795   127.00000

                                 Natural Population      
 --------------------------------------------------------
   Core                      55.96066 ( 99.9298% of  56)
   Valence                   70.52139 ( 99.3259% of  71)
   Natural Minimal Basis    126.48205 ( 99.5922% of 127)
   Natural Rydberg Basis      0.51795 (  0.4078% of 127)
 --------------------------------------------------------

    Atom  No          Natural Electron Configuration
 ----------------------------------------------------------------------------
     Ni    1      [core]4S( 0.44)3d( 9.23)4p( 0.70)4d( 0.01)
     Ni    2      [core]4S( 0.43)3d( 9.19)4p( 1.32)4d( 0.01)
      C    3      [core]2S( 1.26)2p( 2.10)3S( 0.04)3p( 0.02)3d( 0.01)
      C    4      [core]2S( 1.18)2p( 2.22)3S( 0.04)3p( 0.03)3d( 0.01)
      C    5      [core]2S( 1.22)2p( 2.05)3S( 0.05)3p( 0.02)3d( 0.01)
      C    6      [core]2S( 1.22)2p( 2.05)3S( 0.05)3p( 0.02)3d( 0.01)
      C    7      [core]2S( 1.18)2p( 2.22)3S( 0.04)3p( 0.03)3d( 0.01)
      O    8      [core]2S( 1.69)2p( 4.80)3p( 0.01)3d( 0.01)
      O    9      [core]2S( 1.70)2p( 4.81)3S( 0.01)3d( 0.01)
      O   10      [core]2S( 1.70)2p( 4.81)3S( 0.01)3d( 0.01)
      O   11      [core]2S( 1.69)2p( 4.80)3p( 0.01)3d( 0.01)
      O   12      [core]2S( 1.70)2p( 4.81)3d( 0.01)


 Wiberg bond index matrix in the NAO basis:                                    

     Atom    1       2       3       4       5       6       7       8       9
     ---- ------  ------  ------  ------  ------  ------  ------  ------  ------
   1. Ni  0.0000  0.2639  1.1163  0.6561  0.0241  0.0241  0.6561  0.0738  0.0057
   2. Ni  0.2639  0.0000  0.0263  0.5950  1.0746  1.0746  0.5950  0.0628  0.1037
   3.  C  1.1163  0.0263  0.0000  0.0505  0.0038  0.0038  0.0505  0.0093  0.0012
   4.  C  0.6561  0.5950  0.0505  0.0000  0.0372  0.0372  0.0263  1.9891  0.0088
   5.  C  0.0241  1.0746  0.0038  0.0372  0.0000  0.0559  0.0372  0.0111  2.0586
   6.  C  0.0241  1.0746  0.0038  0.0372  0.0559  0.0000  0.0372  0.0111  0.0135
   7.  C  0.6561  0.5950  0.0505  0.0263  0.0372  0.0372  0.0000  0.0021  0.0088
   8.  O  0.0738  0.0628  0.0093  1.9891  0.0111  0.0111  0.0021  0.0000  0.0014
   9.  O  0.0057  0.1037  0.0012  0.0088  2.0586  0.0135  0.0088  0.0014  0.0000
  10.  O  0.0057  0.1037  0.0012  0.0088  0.0135  2.0586  0.0088  0.0014  0.0024
  11.  O  0.0738  0.0628  0.0093  0.0021  0.0111  0.0111  1.9891  0.0004  0.0014
  12.  O  0.1429  0.0074  2.0344  0.0098  0.0013  0.0013  0.0098  0.0015  0.0003

     Atom   10      11      12
     ---- ------  ------  ------
   1. Ni  0.0057  0.0738  0.1429
   2. Ni  0.1037  0.0628  0.0074
   3.  C  0.0012  0.0093  2.0344
   4.  C  0.0088  0.0021  0.0098
   5.  C  0.0135  0.0111  0.0013
   6.  C  2.0586  0.0111  0.0013
   7.  C  0.0088  1.9891  0.0098
   8.  O  0.0014  0.0004  0.0015
   9.  O  0.0024  0.0014  0.0003
  10.  O  0.0000  0.0014  0.0003
  11.  O  0.0014  0.0000  0.0015
  12.  O  0.0003  0.0015  0.0000


 Wiberg bond index, Totals by atom:                                            

     Atom    1
     ---- ------
   1. Ni  3.0426
   2. Ni  3.9698
   3.  C  3.3066
   4.  C  3.4210
   5.  C  3.3286
   6.  C  3.3286
   7.  C  3.4210
   8.  O  2.1641
   9.  O  2.2059
  10.  O  2.2059
  11.  O  2.1641
  12.  O  2.2107


 Atom-atom overlap-weighted NAO bond order:                                    

     Atom    1       2       3       4       5       6       7       8       9
     ---- ------  ------  ------  ------  ------  ------  ------  ------  ------
   1. Ni  0.0000  0.4002  1.0373  0.7565  0.0260  0.0260  0.7565 -0.0164 -0.0007
   2. Ni  0.4002  0.0000 -0.0016  0.6914  1.0379  1.0379  0.6914 -0.0220 -0.0172
   3.  C  1.0373 -0.0016  0.0000  0.0531 -0.0005 -0.0005  0.0531 -0.0041  0.0001
   4.  C  0.7565  0.6914  0.0531  0.0000  0.0537  0.0537  0.0147  1.4409 -0.0023
   5.  C  0.0260  1.0379 -0.0005  0.0537  0.0000  0.0696  0.0537 -0.0057  1.4886
   6.  C  0.0260  1.0379 -0.0005  0.0537  0.0696  0.0000  0.0537 -0.0057 -0.0017
   7.  C  0.7565  0.6914  0.0531  0.0147  0.0537  0.0537  0.0000  0.0005 -0.0023
   8.  O -0.0164 -0.0220 -0.0041  1.4409 -0.0057 -0.0057  0.0005  0.0000  0.0001
   9.  O -0.0007 -0.0172  0.0001 -0.0023  1.4886 -0.0017 -0.0023  0.0001  0.0000
  10.  O -0.0007 -0.0172  0.0001 -0.0023 -0.0017  1.4886 -0.0023  0.0001 -0.0001
  11.  O -0.0164 -0.0220 -0.0041  0.0005 -0.0057 -0.0057  1.4409  0.0000  0.0001
  12.  O -0.0217 -0.0009  1.4732 -0.0020  0.0000  0.0000 -0.0020  0.0001  0.0000

     Atom   10      11      12
     ---- ------  ------  ------
   1. Ni -0.0007 -0.0164 -0.0217
   2. Ni -0.0172 -0.0220 -0.0009
   3.  C  0.0001 -0.0041  1.4732
   4.  C -0.0023  0.0005 -0.0020
   5.  C -0.0017 -0.0057  0.0000
   6.  C  1.4886 -0.0057  0.0000
   7.  C -0.0023  1.4409 -0.0020
   8.  O  0.0001  0.0000  0.0001
   9.  O -0.0001  0.0001  0.0000
  10.  O  0.0000  0.0001  0.0000
  11.  O  0.0001  0.0000  0.0001
  12.  O  0.0000  0.0001  0.0000


 Atom-atom overlap-weighted NAO bond order, Totals by atom:                    

     Atom    1
     ---- ------
   1. Ni  2.9467
   2. Ni  3.7780
   3.  C  2.6060
   4.  C  3.0579
   5.  C  2.7160
   6.  C  2.7160
   7.  C  3.0579
   8.  O  1.3878
   9.  O  1.4645
  10.  O  1.4645
  11.  O  1.3878
  12.  O  1.4469


 MO bond order:                                                                

     Atom    1       2       3       4       5       6       7       8       9
     ---- ------  ------  ------  ------  ------  ------  ------  ------  ------
   1. Ni  0.0000  1.3367  1.1727  0.3859 -0.0911  0.2156 -1.0392  0.2315  0.0213
   2. Ni  1.3367  0.0000  0.0311  0.2047 -0.8031  1.1795  0.9403 -0.1748  0.4714
   3.  C  1.1727  0.0311  0.0000  0.3042 -0.0765  0.0008 -0.3646 -0.0965  0.0414
   4.  C  0.3859  0.2047  0.3042  0.0000 -0.4551 -0.0750 -0.3985  2.0658  0.0540
   5.  C -0.0911 -0.8031 -0.0765 -0.4551  0.0000 -0.2349 -0.2318  0.3069 -0.0121
   6.  C  0.2156  1.1795  0.0008 -0.0750 -0.2349  0.0000  0.1757  0.0602 -0.0065
   7.  C -1.0392  0.9403 -0.3646 -0.3985 -0.2318  0.1757  0.0000  0.1021  0.0549
   8.  O  0.2315 -0.1748 -0.0965  2.0658  0.3069  0.0602  0.1021  0.0000 -0.1043
   9.  O  0.0213  0.4714  0.0414  0.0540 -0.0121 -0.0065  0.0549 -0.1043  0.0000
  10.  O -0.1932 -0.2693  0.0368 -0.0473  0.1087  2.6569 -0.1072 -0.0199  0.0105
  11.  O  0.4869 -0.3123  0.0559  0.0428  0.1670 -0.1223  0.7257  0.0073 -0.0223
  12.  O -0.3985 -0.1547  1.8580 -0.1037  0.0755 -0.0314  0.2461 -0.0342 -0.0187

     Atom   10      11      12
     ---- ------  ------  ------
   1. Ni -0.1932  0.4869 -0.3985
   2. Ni -0.2693 -0.3123 -0.1547
   3.  C  0.0368  0.0559  1.8580
   4.  C -0.0473  0.0428 -0.1037
   5.  C  0.1087  0.1670  0.0755
   6.  C  2.6569 -0.1223 -0.0314
   7.  C -0.1072  0.7257  0.2461
   8.  O -0.0199  0.0073 -0.0342
   9.  O  0.0105 -0.0223 -0.0187
  10.  O  0.0000  0.0602  0.0155
  11.  O  0.0602  0.0000 -0.0865
  12.  O  0.0155 -0.0865  0.0000


 MO atomic valencies:                                                          

     Atom    1
     ---- ------
   1. Ni  2.1285
   2. Ni  2.4495
   3.  C  2.9632
   4.  C  1.9778
   5.  C -1.2467
   6.  C  3.8185
   7.  C  0.1034
   8.  O  2.3442
   9.  O  0.4896
  10.  O  2.2516
  11.  O  1.0024
  12.  O  1.3674


 ***************************************************
 *******         Alpha spin orbitals         *******
 ***************************************************


 NATURAL POPULATIONS:  Natural atomic orbital occupancies 
                                                          
   NAO  Atom  No  lang   Type(AO)    Occupancy      Energy
 ----------------------------------------------------------
     1   Ni    1  S      Cor( 1S)     1.00000    -299.29515
     2   Ni    1  S      Cor( 2S)     1.00000     -34.30970
     3   Ni    1  S      Cor( 3S)     0.99563      -5.35572
     4   Ni    1  S      Val( 4S)     0.22292       0.50860
     5   Ni    1  S      Ryd( 6S)     0.00057       1.47397
     6   Ni    1  S      Ryd( 7S)     0.00009       2.01310
     7   Ni    1  S      Ryd( 5S)     0.00006       0.59044
     8   Ni    1  S      Ryd( 8S)     0.00000     105.02524
     9   Ni    1  S      Ryd( 9S)     0.00000     332.00728
    10   Ni    1  S      Ryd(10S)     0.00000     596.46365
    11   Ni    1  px     Cor( 2p)     1.00000     -30.95332
    12   Ni    1  px     Cor( 3p)     0.99872      -2.49396
    13   Ni    1  px     Val( 4p)     0.02316       0.25465
    14   Ni    1  px     Ryd( 5p)     0.00010       0.92874
    15   Ni    1  px     Ryd( 6p)     0.00002       1.84054
    16   Ni    1  px     Ryd( 7p)     0.00000      12.57992
    17   Ni    1  px     Ryd( 8p)     0.00000      32.24482
    18   Ni    1  py     Cor( 2p)     1.00000     -30.96286
    19   Ni    1  py     Cor( 3p)     0.99937      -2.50140
    20   Ni    1  py     Val( 4p)     0.19730       0.38680
    21   Ni    1  py     Ryd( 5p)     0.00069       0.96878
    22   Ni    1  py     Ryd( 6p)     0.00008       1.73509
    23   Ni    1  py     Ryd( 7p)     0.00002      12.30985
    24   Ni    1  py     Ryd( 8p)     0.00000      32.22481
    25   Ni    1  pz     Cor( 2p)     1.00000     -30.96504
    26   Ni    1  pz     Cor( 3p)     0.99785      -2.50023
    27   Ni    1  pz     Val( 4p)     0.15718       0.67655
    28   Ni    1  pz     Ryd( 5p)     0.00046       1.35912
    29   Ni    1  pz     Ryd( 6p)     0.00020       1.95623
    30   Ni    1  pz     Ryd( 7p)     0.00001      12.18377
    31   Ni    1  pz     Ryd( 8p)     0.00000      32.21659
    32   Ni    1  dxy    Val( 3d)     0.95886      -0.10796
    33   Ni    1  dxy    Ryd( 4d)     0.00117       0.58097
    34   Ni    1  dxy    Ryd( 5d)     0.00001       1.79626
    35   Ni    1  dxy    Ryd( 6d)     0.00000       6.91692
    36   Ni    1  dxz    Val( 3d)     0.92225      -0.10834
    37   Ni    1  dxz    Ryd( 4d)     0.00065       0.88993
    38   Ni    1  dxz    Ryd( 5d)     0.00007       1.90675
    39   Ni    1  dxz    Ryd( 6d)     0.00000       6.98250
    40   Ni    1  dyz    Val( 3d)     0.87982      -0.11982
    41   Ni    1  dyz    Ryd( 4d)     0.00125       1.66937
    42   Ni    1  dyz    Ryd( 5d)     0.00006       2.19901
    43   Ni    1  dyz    Ryd( 6d)     0.00001       7.11114
    44   Ni    1  dx2y2  Val( 3d)     0.93213      -0.10585
    45   Ni    1  dx2y2  Ryd( 4d)     0.00046       1.15549
    46   Ni    1  dx2y2  Ryd( 5d)     0.00007       2.15214
    47   Ni    1  dx2y2  Ryd( 6d)     0.00000       7.04174
    48   Ni    1  dz2    Val( 3d)     0.87657      -0.12333
    49   Ni    1  dz2    Ryd( 5d)     0.00210       3.24439
    50   Ni    1  dz2    Ryd( 4d)     0.00007       2.71410
    51   Ni    1  dz2    Ryd( 6d)     0.00001       7.16977
    52   Ni    1  f(0)   Ryd( 4f)     0.00002       4.01659
    53   Ni    1  f(C1)  Ryd( 4f)     0.00002       3.76530
    54   Ni    1  f(S1)  Ryd( 4f)     0.00002       3.79797
    55   Ni    1  f(C2)  Ryd( 4f)     0.00003       3.87671
    56   Ni    1  f(S2)  Ryd( 4f)     0.00001       3.72997
    57   Ni    1  f(C3)  Ryd( 4f)     0.00000       3.73622
    58   Ni    1  f(S3)  Ryd( 4f)     0.00001       3.81229

    59   Ni    2  S      Cor( 1S)     1.00000    -299.31710
    60   Ni    2  S      Cor( 2S)     1.00000     -34.32969
    61   Ni    2  S      Cor( 3S)     0.99568      -5.37420
    62   Ni    2  S      Val( 4S)     0.21678       0.74952
    63   Ni    2  S      Ryd( 6S)     0.00141       1.25292
    64   Ni    2  S      Ryd( 7S)     0.00008       2.47282
    65   Ni    2  S      Ryd( 5S)     0.00004       1.05742
    66   Ni    2  S      Ryd( 8S)     0.00000     121.19957
    67   Ni    2  S      Ryd( 9S)     0.00000     365.59547
    68   Ni    2  S      Ryd(10S)     0.00000     545.61663
    69   Ni    2  px     Cor( 2p)     1.00000     -30.98510
    70   Ni    2  px     Cor( 3p)     0.99893      -2.52429
    71   Ni    2  px     Val( 4p)     0.25370       0.39907
    72   Ni    2  px     Ryd( 5p)     0.00042       0.84645
    73   Ni    2  px     Ryd( 6p)     0.00006       1.90965
    74   Ni    2  px     Ryd( 7p)     0.00001      12.19830
    75   Ni    2  px     Ryd( 8p)     0.00000      32.21963
    76   Ni    2  py     Cor( 2p)     1.00000     -30.97696
    77   Ni    2  py     Cor( 3p)     0.99974      -2.51442
    78   Ni    2  py     Val( 4p)     0.27444       0.35271
    79   Ni    2  py     Ryd( 5p)     0.00100       0.95798
    80   Ni    2  py     Ryd( 6p)     0.00015       1.81555
    81   Ni    2  py     Ryd( 7p)     0.00001      12.20023
    82   Ni    2  py     Ryd( 8p)     0.00000      32.24599
    83   Ni    2  pz     Cor( 2p)     1.00000     -30.98185
    84   Ni    2  pz     Cor( 3p)     0.99865      -2.51965
    85   Ni    2  pz     Val( 4p)     0.20576       0.50616
    86   Ni    2  pz     Ryd( 5p)     0.00046       0.91607
    87   Ni    2  pz     Ryd( 6p)     0.00034       1.82240
    88   Ni    2  pz     Ryd( 7p)     0.00001      11.77780
    89   Ni    2  pz     Ryd( 8p)     0.00000      32.23530
    90   Ni    2  dxy    Val( 3d)     0.92895      -0.12708
    91   Ni    2  dxy    Ryd( 4d)     0.00045       0.78264
    92   Ni    2  dxy    Ryd( 5d)     0.00001       1.89594
    93   Ni    2  dxy    Ryd( 6d)     0.00000       6.94291
    94   Ni    2  dxz    Val( 3d)     0.87586      -0.13806
    95   Ni    2  dxz    Ryd( 4d)     0.00102       1.35963
    96   Ni    2  dxz    Ryd( 5d)     0.00008       2.45313
    97   Ni    2  dxz    Ryd( 6d)     0.00001       7.06724
    98   Ni    2  dyz    Val( 3d)     0.90838      -0.12773
    99   Ni    2  dyz    Ryd( 4d)     0.00045       0.95181
   100   Ni    2  dyz    Ryd( 5d)     0.00006       2.15957
   101   Ni    2  dyz    Ryd( 6d)     0.00001       7.01762
   102   Ni    2  dx2y2  Val( 3d)     0.90506      -0.13289
   103   Ni    2  dx2y2  Ryd( 4d)     0.00118       1.44182
   104   Ni    2  dx2y2  Ryd( 5d)     0.00004       2.52726
   105   Ni    2  dx2y2  Ryd( 6d)     0.00001       7.05064
   106   Ni    2  dz2    Val( 3d)     0.93079      -0.13758
   107   Ni    2  dz2    Ryd( 4d)     0.00133       1.70914
   108   Ni    2  dz2    Ryd( 5d)     0.00004       2.20042
   109   Ni    2  dz2    Ryd( 6d)     0.00000       6.99434
   110   Ni    2  f(0)   Ryd( 4f)     0.00002       3.84812
   111   Ni    2  f(C1)  Ryd( 4f)     0.00001       3.76033
   112   Ni    2  f(S1)  Ryd( 4f)     0.00002       3.76715
   113   Ni    2  f(C2)  Ryd( 4f)     0.00002       3.98926
   114   Ni    2  f(S2)  Ryd( 4f)     0.00001       3.73618
   115   Ni    2  f(C3)  Ryd( 4f)     0.00001       3.83250
   116   Ni    2  f(S3)  Ryd( 4f)     0.00002       3.76134

   117    C    3  S      Cor( 1S)     0.99949      -9.99971
   118    C    3  S      Val( 2S)     0.62882      -0.19950
   119    C    3  S      Ryd( 4S)     0.02218       1.69635
   120    C    3  S      Ryd( 3S)     0.00004       1.00709
   121    C    3  S      Ryd( 5S)     0.00001      23.22473
   122    C    3  px     Val( 2p)     0.29212       0.02749
   123    C    3  px     Ryd( 4p)     0.00070       1.00452
   124    C    3  px     Ryd( 3p)     0.00007       0.49649
   125    C    3  px     Ryd( 5p)     0.00002       2.32952
   126    C    3  py     Val( 2p)     0.35786       0.02264
   127    C    3  py     Ryd( 4p)     0.00207       1.08004
   128    C    3  py     Ryd( 3p)     0.00010       0.51377
   129    C    3  py     Ryd( 5p)     0.00006       2.35514
   130    C    3  pz     Val( 2p)     0.43001       0.10310
   131    C    3  pz     Ryd( 4p)     0.00854       2.14347
   132    C    3  pz     Ryd( 3p)     0.00017       0.67814
   133    C    3  pz     Ryd( 5p)     0.00012       3.23266
   134    C    3  dxy    Ryd( 3d)     0.00003       1.48348
   135    C    3  dxz    Ryd( 3d)     0.00211       1.89383
   136    C    3  dyz    Ryd( 3d)     0.00217       1.93976
   137    C    3  dx2y2  Ryd( 3d)     0.00003       1.56111
   138    C    3  dz2    Ryd( 3d)     0.00065       2.98814

   139    C    4  S      Cor( 1S)     0.99964      -9.99953
   140    C    4  S      Val( 2S)     0.58885      -0.17441
   141    C    4  S      Ryd( 4S)     0.01880       1.60777
   142    C    4  S      Ryd( 3S)     0.00044       0.82663
   143    C    4  S      Ryd( 5S)     0.00000      22.99170
   144    C    4  px     Val( 2p)     0.29604       0.02815
   145    C    4  px     Ryd( 4p)     0.00168       0.89795
   146    C    4  px     Ryd( 3p)     0.00010       0.73883
   147    C    4  px     Ryd( 5p)     0.00005       2.28616
   148    C    4  py     Val( 2p)     0.40652       0.12870
   149    C    4  py     Ryd( 4p)     0.01000       1.69496
   150    C    4  py     Ryd( 3p)     0.00018       1.19699
   151    C    4  py     Ryd( 5p)     0.00008       2.59701
   152    C    4  pz     Val( 2p)     0.48486       0.00720
   153    C    4  pz     Ryd( 4p)     0.00417       1.59982
   154    C    4  pz     Ryd( 3p)     0.00025       0.75292
   155    C    4  pz     Ryd( 5p)     0.00005       2.43189
   156    C    4  dxy    Ryd( 3d)     0.00200       1.81257
   157    C    4  dxz    Ryd( 3d)     0.00014       1.66017
   158    C    4  dyz    Ryd( 3d)     0.00180       2.30926
[...]
                                                    324(r)
    60. LP*(   6)Ni   2                  0.17515     0.84658  249(r),266(r),233(r),284(r)
                                                    318(r),319(r),109(g),68(r)
                                                    107(g),160(r),191(v),208(v)
                                                    73(r),115(g),118(g),75(r)
                                                    328(v),331(v),325(r),334(r)
                                                    147(r),125(g),81(r),69(r)
                                                    168(r),219(r),320(g),321(g)
                                                    76(r),182(v),199(v),128(g)
                                                    176(r),227(r),185(v),202(v)
                                                    123(g),254(r),271(r),138(g)
                                                    120(g),112(g),116(g),80(r)
                                                    82(r),166(r),217(r),195(v)
                                                    212(v),171(r),222(r),92(r)
                                                    124(g),192(v),209(v),164(r)
                                                    215(r),317(r),305(r),322(r)
                                                    238(r),289(r),170(r),221(r)
                                                    122(g),103(r),100(r),175(r)
                                                    226(r),329(v),332(v),95(r)
                                                    237(r),288(r),327(r),336(r)
                                                    194(v),211(v),163(r),188(v)
                                                    205(v),94(r),143(g),258(r)
                                                    275(r),155(r),310(r),148(r)
                                                    84(r),300(r),232(r),283(r)
                                                    181(v),198(v),253(r),270(r)
                                                    135(g),246(r),297(r),83(r)
                                                    165(r),216(r),173(r),224(r)
                                                    316(r),156(r),311(r),235(r)
                                                    286(r),71(r),303(r),179(r)
                                                    230(r),174(r),225(r),161(r)
                                                    96(r)
    61. LP*(   7)Ni   2                  0.12817     0.38410  110(g),131(g),330(v),333(v)
                                                    327(r),336(r),119(g),134(g)
                                                    164(r),215(r),132(g),186(v)
                                                    203(v),113(g),166(r),217(r)
                                                    325(r),334(r),170(r),221(r)
                                                    78(r),168(r),219(r),175(r)
                                                    226(r),174(r),225(r),238(r)
                                                    289(r),151(r),70(r),248(r)
                                                    299(r),79(r),246(r),297(r)
                                                    97(r),176(r),227(r),179(r)
                                                    230(r),178(r),229(r),173(r)
                                                    224(r)
    63. LP (   1) O   9                  0.99020    -0.60660  181(v),182(v),320(v),249(g)
                                                    328(g),68(r)
    64. LP (   1) O  10                  0.99020    -0.60660  198(v),199(v),321(v),266(g)
                                                    331(g),68(r)
   107. RY*(   1)Ni   2                  0.00095     1.91741   
   108. RY*(   2)Ni   2                  0.00090     1.23237   
   109. RY*(   3)Ni   2                  0.00062     1.14496   
   110. RY*(   4)Ni   2                  0.00047     1.10283   
   111. RY*(   5)Ni   2                  0.00043     0.85109   
   112. RY*(   6)Ni   2                  0.00027     1.48505   
   113. RY*(   7)Ni   2                  0.00021     0.84270   
   114. RY*(   8)Ni   2                  0.00012     1.14857   
   115. RY*(   9)Ni   2                  0.00010     1.36866   
   116. RY*(  10)Ni   2                  0.00007     1.86273   
   117. RY*(  11)Ni   2                  0.00006     2.31269   
   118. RY*(  12)Ni   2                  0.00005     1.77527   
   119. RY*(  13)Ni   2                  0.00003     2.35378   
   120. RY*(  14)Ni   2                  0.00001     1.39268   
   121. RY*(  15)Ni   2                  0.00000    32.19835   
   122. RY*(  16)Ni   2                  0.00000   545.53085   
   123. RY*(  17)Ni   2                  0.00000    11.60346   
   124. RY*(  18)Ni   2                  0.00000    32.20915   
   125. RY*(  19)Ni   2                  0.00000   121.61207   
   126. RY*(  20)Ni   2                  0.00001     1.88207   
   127. RY*(  21)Ni   2                  0.00000     6.89586   
   128. RY*(  22)Ni   2                  0.00000   365.59165   
   129. RY*(  23)Ni   2                  0.00001     2.56069   
   130. RY*(  24)Ni   2                  0.00000     6.96969   
   131. RY*(  25)Ni   2                  0.00000    12.32574   
   132. RY*(  26)Ni   2                  0.00001     1.99112   
   133. RY*(  27)Ni   2                  0.00000     6.73503   
   134. RY*(  28)Ni   2                  0.00000    32.24143   
   135. RY*(  29)Ni   2                  0.00000     2.43092   
   136. RY*(  30)Ni   2                  0.00000     6.99537   
   137. RY*(  31)Ni   2                  0.00000    11.66157   
   138. RY*(  32)Ni   2                  0.00001     2.24255   
   139. RY*(  33)Ni   2                  0.00000     6.96903   
   140. RY*(  34)Ni   2                  0.00000     3.78129   
   141. RY*(  35)Ni   2                  0.00000     3.73045   
   142. RY*(  36)Ni   2                  0.00000     3.52097   
   143. RY*(  37)Ni   2                  0.00000     3.74828   
   144. RY*(  38)Ni   2                  0.00000     3.73066   
   145. RY*(  39)Ni   2                  0.00000     3.83517   
   146. RY*(  40)Ni   2                  0.00000     3.74348   
   181. RY*(   1) C   5                  0.01165     1.03317   
   182. RY*(   2) C   5                  0.00333     3.03971   
   183. RY*(   3) C   5                  0.00186     1.20999   
   184. RY*(   4) C   5                  0.00157     1.68976   
   185. RY*(   5) C   5                  0.00057     1.13512   
   186. RY*(   6) C   5                  0.00049     1.55475   
   187. RY*(   7) C   5                  0.00005     0.56314   
   188. RY*(   8) C   5                  0.00005     1.67182   
   189. RY*(   9) C   5                  0.00002     1.60117   
   190. RY*(  10) C   5                  0.00001     1.76956   
   191. RY*(  11) C   5                  0.00001     1.02833   
   192. RY*(  12) C   5                  0.00001     2.76773   
   193. RY*(  13) C   5                  0.00001     1.54791   
   194. RY*(  14) C   5                  0.00001     2.71111   
   195. RY*(  15) C   5                  0.00002     1.09960   
   196. RY*(  16) C   5                  0.00000     2.55135   
   197. RY*(  17) C   5                  0.00000    23.03355   
   198. RY*(   1) C   6                  0.01165     1.03317   
   199. RY*(   2) C   6                  0.00333     3.03971   
   200. RY*(   3) C   6                  0.00186     1.20999   
   201. RY*(   4) C   6                  0.00157     1.68976   
   202. RY*(   5) C   6                  0.00057     1.13512   
   203. RY*(   6) C   6                  0.00049     1.55475   
   204. RY*(   7) C   6                  0.00005     0.56314   
   205. RY*(   8) C   6                  0.00005     1.67182   
   206. RY*(   9) C   6                  0.00002     1.60117   
   207. RY*(  10) C   6                  0.00001     1.76956   
   208. RY*(  11) C   6                  0.00001     1.02833   
   209. RY*(  12) C   6                  0.00001     2.76773   
   210. RY*(  13) C   6                  0.00001     1.54791   
   211. RY*(  14) C   6                  0.00001     2.71111   
   212. RY*(  15) C   6                  0.00002     1.09960   
   213. RY*(  16) C   6                  0.00000     2.55135   
   214. RY*(  17) C   6                  0.00000    23.03355   
   249. RY*(   1) O   9                  0.00267     0.85059   
   250. RY*(   2) O   9                  0.00066     0.63901   
   251. RY*(   3) O   9                  0.00044     0.60546   
   252. RY*(   4) O   9                  0.00007     1.28563   
   253. RY*(   5) O   9                  0.00002     1.71794   
   254. RY*(   6) O   9                  0.00002     1.16833   
   255. RY*(   7) O   9                  0.00000    49.58392   
   256. RY*(   8) O   9                  0.00000     1.28708   
   257. RY*(   9) O   9                  0.00000     4.87679   
   258. RY*(  10) O   9                  0.00001     1.50227   
   259. RY*(  11) O   9                  0.00000     4.92063   
   260. RY*(  12) O   9                  0.00000     5.13425   
   261. RY*(  13) O   9                  0.00000     3.11708   
   262. RY*(  14) O   9                  0.00000     3.42295   
   263. RY*(  15) O   9                  0.00000     2.99534   
   264. RY*(  16) O   9                  0.00000     3.18803   
   265. RY*(  17) O   9                  0.00000     3.08632   
   266. RY*(   1) O  10                  0.00267     0.85059   
   267. RY*(   2) O  10                  0.00066     0.63901   
   268. RY*(   3) O  10                  0.00044     0.60546   
   269. RY*(   4) O  10                  0.00007     1.28563   
   270. RY*(   5) O  10                  0.00002     1.71794   
   271. RY*(   6) O  10                  0.00002     1.16833   
   272. RY*(   7) O  10                  0.00000    49.58392   
   273. RY*(   8) O  10                  0.00000     1.28708   
   274. RY*(   9) O  10                  0.00000     4.87679   
   275. RY*(  10) O  10                  0.00001     1.50227   
   276. RY*(  11) O  10                  0.00000     4.92063   
   277. RY*(  12) O  10                  0.00000     5.13425   
   278. RY*(  13) O  10                  0.00000     3.11708   
   279. RY*(  14) O  10                  0.00000     3.42295   
   280. RY*(  15) O  10                  0.00000     2.99534   
   281. RY*(  16) O  10                  0.00000     3.18803   
   282. RY*(  17) O  10                  0.00000     3.08632   
   320. BD*(   1)Ni   2 - C   5          0.00327     0.64150   
   321. BD*(   1)Ni   2 - C   6          0.00327     0.64150   
   328. BD*(   1) C   5 - O   9          0.00500     0.82645   
   329. BD*(   2) C   5 - O   9          0.06906     0.16676   
   330. BD*(   3) C   5 - O   9          0.04399     0.17061   
   331. BD*(   1) C   6 - O  10          0.00500     0.82645   
   332. BD*(   2) C   6 - O  10          0.06906     0.16676   
   333. BD*(   3) C   6 - O  10          0.04399     0.17061   
       -------------------------------
              Total Lewis   27.56208  ( 97.8785%)
        Valence non-Lewis    0.54596  (  1.9388%)
        Rydberg non-Lewis    0.05144  (  0.1827%)
       -------------------------------
            Total unit  2   28.15948  (100.0000%)
           Charge unit  2   -0.15948
 Sorting of NBOs:                   30   21   31   22   33   37   35   28   26   24
 Sorting of NBOs:                   45   46   48   44   47   39   40   43   41   42
 Sorting of NBOs:                   32   23   34   38   36   27   29   25   15   12
 Sorting of NBOs:                    6    9   18   66   63   64   65   62    1    5
 Sorting of NBOs:                    4   16   13    8    7   17   14   10   19   11
 Sorting of NBOs:                   20    2    3   55   57   56   58   59   51   50
 Sorting of NBOs:                   52   53   49  324  323  335  326  329  332  333
 Sorting of NBOs:                  330  336  327   54   61  157   77  317  204  187
 Sorting of NBOs:                  251  268  234  285  250  267  320  321  302  301
 Sorting of NBOs:                   72  318  319  334  325  231  180  328  331  322
 Sorting of NBOs:                  284  233  113   60  266  249  111  160   67  164
 Sorting of NBOs:                  215  173  224   78  286  235   81  191  208  198
 Sorting of NBOs:                  181  305  300  147  167  218  195  212  110  151
 Sorting of NBOs:                  154  185  202  304  109  114  271  254  183  200
 Sorting of NBOs:                  176  227  108  303  152  252  269  273  256  307
 Sorting of NBOs:                  232  283  115  120   70   73   71  112  166  217
 Sorting of NBOs:                  153  239  290  275  258  288  237  150  221  170
 Sorting of NBOs:                  220  169  155  171  222  210  193  203  186  238
 Sorting of NBOs:                  289  189  206  172  223  205  188  184  201  253
 Sorting of NBOs:                  270  190  207  118   86  310  159  149  116   89
 Sorting of NBOs:                  126   68  156  107  132  226  175  219  168   76
 Sorting of NBOs:                   69  138  117  177  228  119   95   85  165  216
 Sorting of NBOs:                   74  135  287  236  162   79  248  299  196  213
 Sorting of NBOs:                  129   75  229  178  194  211  158  192  209  174
 Sorting of NBOs:                  225   80  312  315  245  296  247  298  148  263
 Sorting of NBOs:                  280  199  182  265  282  278  261  163  264  281
 Sorting of NBOs:                  295  244  313  314  297  246  102  279  262  142
 Sorting of NBOs:                  316  104  141  144  101  105  106  146  103  143
 Sorting of NBOs:                  140  145  100  292  241  309  257  274  276  259
 Sorting of NBOs:                  240  291  308  277  260  243  294  311   93   96
 Sorting of NBOs:                  133   87  127   90  139  130  136   99   83  123
 Sorting of NBOs:                  137  131   88   97  161  230  179  214  197   84
 Sorting of NBOs:                  121  124   98  134   91  242  293  255  272  306
 Sorting of NBOs:                   82  125   92  128  122   94
 Reordering of NBOs for storage:    30   21   31   22   33   37   35   28   26   24
 Reordering of NBOs for storage:    45   46   48   44   47   39   40   43   41   42
 Reordering of NBOs for storage:    32   23   34   38   36   27   29   25   15   12
 Reordering of NBOs for storage:     6    9   18   66   63   64   65   62    1    5
 Reordering of NBOs for storage:     4   16   13    8    7   17   14   10   19   11
 Reordering of NBOs for storage:    20    2    3   55   57   56   58   59   51   50
 Reordering of NBOs for storage:    52   53   49  324  323  335  326  329  332  333
 Reordering of NBOs for storage:   330  336  327   54   61  317  320  321  318  319
 Reordering of NBOs for storage:   334  325  328  331  322   60  157   77  204  187
 Reordering of NBOs for storage:   251  268  234  285  250  267  302  301   72  231
 Reordering of NBOs for storage:   180  284  233  113  266  249  111  160   67  164
 Reordering of NBOs for storage:   215  173  224   78  286  235   81  191  208  198
 Reordering of NBOs for storage:   181  305  300  147  167  218  195  212  110  151
 Reordering of NBOs for storage:   154  185  202  304  109  114  271  254  183  200
 Reordering of NBOs for storage:   176  227  108  303  152  252  269  273  256  307
 Reordering of NBOs for storage:   232  283  115  120   70   73   71  112  166  217
 Reordering of NBOs for storage:   153  239  290  275  258  288  237  150  221  170
 Reordering of NBOs for storage:   220  169  155  171  222  210  193  203  186  238
 Reordering of NBOs for storage:   289  189  206  172  223  205  188  184  201  253
 Reordering of NBOs for storage:   270  190  207  118   86  310  159  149  116   89
 Reordering of NBOs for storage:   126   68  156  107  132  226  175  219  168   76
 Reordering of NBOs for storage:    69  138  117  177  228  119   95   85  165  216
 Reordering of NBOs for storage:    74  135  287  236  162   79  248  299  196  213
 Reordering of NBOs for storage:   129   75  229  178  194  211  158  192  209  174
 Reordering of NBOs for storage:   225   80  312  315  245  296  247  298  148  263
 Reordering of NBOs for storage:   280  199  182  265  282  278  261  163  264  281
 Reordering of NBOs for storage:   295  244  313  314  297  246  102  279  262  142
 Reordering of NBOs for storage:   316  104  141  144  101  105  106  146  103  143
 Reordering of NBOs for storage:   140  145  100  292  241  309  257  274  276  259
 Reordering of NBOs for storage:   240  291  308  277  260  243  294  311   93   96
 Reordering of NBOs for storage:   133   87  127   90  139  130  136   99   83  123
 Reordering of NBOs for storage:   137  131   88   97  161  230  179  214  197   84
 Reordering of NBOs for storage:   121  124   98  134   91  242  293  255  272  306
 Reordering of NBOs for storage:    82  125   92  128  122   94
 Labels of output orbitals:  CR  CR  CR  CR  CR  CR  CR  CR  CR  CR  CR  CR  CR  CR  CR  CR  CR  CR  CR  CR  
 Labels of output orbitals:  CR  CR  CR  CR  CR  CR  CR  CR  BD  BD  BD  BD  BD  LP  LP  LP  LP  LP  BD  BD  
 Labels of output orbitals:  BD  BD  BD  BD  BD  BD  BD  BD  BD  BD  BD  BD  BD  LP  LP  LP  LP  LP  LP  LP  
 Labels of output orbitals:  LP  LP  LP  BD* BD* BD* BD* BD* BD* BD* BD* BD* BD* LP* LP* BD* BD* BD* BD* BD* 
 Labels of output orbitals:  BD* BD* BD* BD* BD* LP* RY* RY* RY* RY* RY* RY* RY* RY* RY* RY* RY* RY* RY* RY* 
 Labels of output orbitals:  RY* RY* RY* RY* RY* RY* RY* RY* RY* RY* RY* RY* RY* RY* RY* RY* RY* RY* RY* RY* 
 Labels of output orbitals:  RY* RY* RY* RY* RY* RY* RY* RY* RY* RY* RY* RY* RY* RY* RY* RY* RY* RY* RY* RY* 
 Labels of output orbitals:  RY* RY* RY* RY* RY* RY* RY* RY* RY* RY* RY* RY* RY* RY* RY* RY* RY* RY* RY* RY* 
 Labels of output orbitals:  RY* RY* RY* RY* RY* RY* RY* RY* RY* RY* RY* RY* RY* RY* RY* RY* RY* RY* RY* RY* 
 Labels of output orbitals:  RY* RY* RY* RY* RY* RY* RY* RY* RY* RY* RY* RY* RY* RY* RY* RY* RY* RY* RY* RY* 
 Labels of output orbitals:  RY* RY* RY* RY* RY* RY* RY* RY* RY* RY* RY* RY* RY* RY* RY* RY* RY* RY* RY* RY* 
 Labels of output orbitals:  RY* RY* RY* RY* RY* RY* RY* RY* RY* RY* RY* RY* RY* RY* RY* RY* RY* RY* RY* RY* 
 Labels of output orbitals:  RY* RY* RY* RY* RY* RY* RY* RY* RY* RY* RY* RY* RY* RY* RY* RY* RY* RY* RY* RY* 
 Labels of output orbitals:  RY* RY* RY* RY* RY* RY* RY* RY* RY* RY* RY* RY* RY* RY* RY* RY* RY* RY* RY* RY* 
 Labels of output orbitals:  RY* RY* RY* RY* RY* RY* RY* RY* RY* RY* RY* RY* RY* RY* RY* RY* RY* RY* RY* RY* 
 Labels of output orbitals:  RY* RY* RY* RY* RY* RY* RY* RY* RY* RY* RY* RY* RY* RY* RY* RY* RY* RY* RY* RY* 
 Labels of output orbitals:  RY* RY* RY* RY* RY* RY* RY* RY* RY* RY* RY* RY* RY* RY* RY* RY* 
 1|1|UNPC-CCX|SP|UB3LYP|6-311+G(d)|C5Ni2O5(1-,2)|CCX|23-Oct-2016|0||# u
 b3lyp/6-311+g(d) guess=read geom=allcheck pop=(nboread,savenbo)||from 
 Ni2CO5-_221_A_2th_2||-1,2|Ni,0.,0.,1.331911|Ni,0.,0.,-1.049571|C,0.,0.
 ,3.071868|C,0.,1.570561,0.25426|C,-1.526171,0.,-1.983766|C,1.526171,0.
 ,-1.983766|C,0.,-1.570561,0.25426|O,0.,2.736669,0.156985|O,-2.491116,0
 .,-2.6215|O,2.491116,0.,-2.6215|O,0.,-2.736669,0.156985|O,0.,0.,4.2311
 96||Version=IA32W-G09RevA.02|State=2-B2|HF=-3583.6155465|S2=0.772442|S
 2-1=0.|S2A=0.750389|RMSD=3.461e-009|Dipole=0.,0.,-0.0048313|Quadrupole
 =6.905958,1.4348645,-8.3408224,0.,0.,0.|PG=C02V [C2(Ni1Ni1C1O1),SGV(C2
 O2),SGV'(C2O2)]||@


 THE SECRET OF SUCCESS IN LIFE IS TO EAT WHAT YOU LIKE, AND LET THE FOOD
 FIGHT IT OUT INSIDE YOU. -- FROM A FORTUNE COOKIE
 Job cpu time:  0 days  0 hours  7 minutes 10.0 seconds.
 File lengths (MBytes):  RWF=    109 Int=      0 D2E=      0 Chk=     10 Scr=      1
 Normal termination of Gaussian 09 at Sun Oct 23 13:47:06 2016.
