 Entering Link 1 = C:\G09W\l1.exe PID=     10836.
  
 Copyright (c) 1988,1990,1992,1993,1995,1998,2003,2009, Gaussian, Inc.
                  All Rights Reserved.
  
 This is part of the Gaussian(R) 09 program.  It is based on
 the Gaussian(R) 03 system (copyright 2003, Gaussian, Inc.),
 the Gaussian(R) 98 system (copyright 1998, Gaussian, Inc.),
 the Gaussian(R) 94 system (copyright 1995, Gaussian, Inc.),
 the Gaussian 92(TM) system (copyright 1992, Gaussian, Inc.),
 the Gaussian 90(TM) system (copyright 1990, Gaussian, Inc.),
 the Gaussian 88(TM) system (copyright 1988, Gaussian, Inc.),
 the Gaussian 86(TM) system (copyright 1986, Carnegie Mellon
 University), and the Gaussian 82(TM) system (copyright 1983,
 Carnegie Mellon University). Gaussian is a federally registered
 trademark of Gaussian, Inc.
  
 This software contains proprietary and confidential information,
 including trade secrets, belonging to Gaussian, Inc.
  
 This software is provided under written license and may be
 used, copied, transmitted, or stored only in accord with that
 written license.
  
 The following legend is applicable only to US Government
 contracts under FAR:
  
                    RESTRICTED RIGHTS LEGEND
  
 Use, reproduction and disclosure by the US Government is
 subject to restrictions as set forth in subparagraphs (a)
 and (c) of the Commercial Computer Software - Restricted
 Rights clause in FAR 52.227-19.
  
 Gaussian, Inc.
 340 Quinnipiac St., Bldg. 40, Wallingford CT 06492
  
  
 ---------------------------------------------------------------
 Warning -- This program may not be used in any manner that
 competes with the business of Gaussian, Inc. or will provide
 assistance to any competitor of Gaussian, Inc.  The licensee
 of this program is prohibited from giving any competitor of
 Gaussian, Inc. access to this program.  By using this program,
 the user acknowledges that Gaussian, Inc. is engaged in the
 business of creating and licensing software in the field of
 computational chemistry and represents and warrants to the
 licensee that it is not a competitor of Gaussian, Inc. and that
 it will not use this program in any manner prohibited above.
 ---------------------------------------------------------------
  

 Cite this work as:
 Gaussian 09, Revision A.02,
 M. J. Frisch, G. W. Trucks, H. B. Schlegel, G. E. Scuseria, 
 M. A. Robb, J. R. Cheeseman, G. Scalmani, V. Barone, B. Mennucci, 
 G. A. Petersson, H. Nakatsuji, M. Caricato, X. Li, H. P. Hratchian, 
 A. F. Izmaylov, J. Bloino, G. Zheng, J. L. Sonnenberg, M. Hada, 
 M. Ehara, K. Toyota, R. Fukuda, J. Hasegawa, M. Ishida, T. Nakajima, 
 Y. Honda, O. Kitao, H. Nakai, T. Vreven, J. A. Montgomery, Jr., 
 J. E. Peralta, F. Ogliaro, M. Bearpark, J. J. Heyd, E. Brothers, 
 K. N. Kudin, V. N. Staroverov, R. Kobayashi, J. Normand, 
 K. Raghavachari, A. Rendell, J. C. Burant, S. S. Iyengar, J. Tomasi, 
 M. Cossi, N. Rega, J. M. Millam, M. Klene, J. E. Knox, J. B. Cross, 
 V. Bakken, C. Adamo, J. Jaramillo, R. Gomperts, R. E. Stratmann, 
 O. Yazyev, A. J. Austin, R. Cammi, C. Pomelli, J. W. Ochterski, 
 R. L. Martin, K. Morokuma, V. G. Zakrzewski, G. A. Voth, 
 P. Salvador, J. J. Dannenberg, S. Dapprich, A. D. Daniels, 
 O. Farkas, J. B. Foresman, J. V. Ortiz, J. Cioslowski, 
 and D. J. Fox, Gaussian, Inc., Wallingford CT, 2009.
 
 ******************************************
 Gaussian 09:  IA32W-G09RevA.02 11-Jun-2009
                18-Oct-2016 
 ******************************************
 %nprocshared=1
 Will use up to    1 processors via shared memory.
 %chk=D:\Gaussian Result\CrFeCO-\CrFeCO- OK_meng\Ni2CO4-_31_A1_2th_4_C2v_big_chk.
 chk
 %mem=400MB
 ----------------------------------------------------------------------
 # opt=(tight,cartesian) freq ub3lyp/6-311+g(d) int=ultrafine iop(1/8=1
 0) scf=(maxcyc=80,xqc) symm=on
 ----------------------------------------------------------------------
 1/7=10,8=10,10=7,14=-1,18=10,26=3,38=1/1,3;
 2/12=2,15=-1,17=6,18=5,29=2,40=1/2;
 3/5=4,6=6,7=11,11=2,16=1,25=1,30=1,71=1,74=-5,75=-5,116=2/1,2,3;
 4//1;
 5/5=2,7=80,8=3,13=1,38=5/2,8;
 6/7=2,8=2,9=2,10=2,28=1/1;
 7/7=1,29=1,30=1/1,2,3,16;
 1/7=10,8=10,10=7,14=-1,18=10/3(2);
 2/29=1/2;
 99/12=1/99;
 2/29=1/2;
 3/5=4,6=6,7=11,11=2,16=1,25=1,30=1,71=1,74=-5,75=-5,116=2/1,2,3;
 4/5=5,16=3/1;
 5/5=2,7=80,8=3,13=1,38=5/2,8;
 7/7=1,30=1/1,2,3,16;
 1/7=10,8=10,14=-1,18=10/3(-5);
 2/29=1/2;
 6/7=2,8=2,9=2,10=2,19=2,28=1/1;
 99/9=1,12=1/99;
 -------------------
 Title Card Required
 -------------------
 Symbolic Z-matrix:
 Charge = -1 Multiplicity = 2
 Ni                    0.        0.       -1.15725 
 Ni                    0.        0.        1.16156 
 C                     0.        1.55699  -0.15732 
 C                     0.        0.       -2.90782 
 C                     0.       -1.55699  -0.15732 
 O                     0.        0.       -4.06868 
 O                     0.       -2.69462   0.1093 
 O                     0.        2.69462   0.1093 
 C                     0.        0.        2.90941 
 O                     0.        0.        4.06978 
 

 GradGradGradGradGradGradGradGradGradGradGradGradGradGradGradGradGradGrad
 Berny optimization.
 Initialization pass.
 No Z-matrix variables, so optimization will use Cartesian coordinates.
 Trust Radius=1.00D-01 FncErr=1.00D-07 GrdErr=1.00D-06
 Number of steps in this run=  40 maximum allowed number of steps= 100.
 GradGradGradGradGradGradGradGradGradGradGradGradGradGradGradGradGradGrad

 ---------------------------------------------------------------------------------------------------
                            Z-MATRIX (ANGSTROMS AND DEGREES)
   CD    Cent   Atom    N1       Length/X        N2       Alpha/Y        N3        Beta/Z          J
 ---------------------------------------------------------------------------------------------------
      1      1  Ni       0   0.000000          0.000000         -1.157247
      2      2  Ni       0   0.000000          0.000000          1.161557
      3      3  C        0   0.000000          1.556987         -0.157315
      4      4  C        0   0.000000          0.000000         -2.907821
      5      5  C        0   0.000000         -1.556987         -0.157315
      6      6  O        0   0.000000          0.000000         -4.068684
      7      7  O        0   0.000000         -2.694620          0.109300
      8      8  O        0   0.000000          2.694620          0.109300
      9      9  C        0   0.000000          0.000000          2.909411
     10     10  O        0   0.000000          0.000000          4.069779
 ---------------------------------------------------------------------------------------------------
                         Z-Matrix orientation:                         
 ---------------------------------------------------------------------
 Center     Atomic      Atomic             Coordinates (Angstroms)
 Number     Number       Type             X           Y           Z
 ---------------------------------------------------------------------
      1         28           0        0.000000    0.000000   -1.157247
      2         28           0        0.000000    0.000000    1.161557
      3          6           0        0.000000    1.556987   -0.157315
      4          6           0        0.000000    0.000000   -2.907821
      5          6           0        0.000000   -1.556987   -0.157315
      6          8           0        0.000000    0.000000   -4.068684
      7          8           0        0.000000   -2.694620    0.109300
      8          8           0        0.000000    2.694620    0.109300
      9          6           0        0.000000    0.000000    2.909411
     10          8           0        0.000000    0.000000    4.069779
 ---------------------------------------------------------------------
                    Distance matrix (angstroms):
                    1          2          3          4          5
     1  Ni   0.000000
     2  Ni   2.318804   0.000000
     3  C    1.850425   2.040498   0.000000
     4  C    1.750574   4.069378   3.160616   0.000000
     5  C    1.850425   2.040498   3.113974   3.160616   0.000000
     6  O    2.911437   5.230241   4.209871   1.160863   4.209871
     7  O    2.977435   2.892788   4.259958   4.045244   1.168457
     8  O    2.977435   2.892788   1.168457   4.045244   4.259958
     9  C    4.066658   1.747854   3.439334   5.817232   3.439334
    10  O    5.227026   2.908222   4.504723   6.977600   4.504723
                    6          7          8          9         10
     6  O    0.000000
     7  O    4.971572   0.000000
     8  O    4.971572   5.389240   0.000000
     9  C    6.978095   3.886078   3.886078   0.000000
    10  O    8.138463   4.790237   4.790237   1.160368   0.000000
 Stoichiometry    C4Ni2O4(1-,2)
 Framework group  C2V[C2(OCNiNiCO),SGV(C2O2)]
 Deg. of freedom     9
 Full point group                 C2V     NOp   4
 Largest Abelian subgroup         C2V     NOp   4
 Largest concise Abelian subgroup C2      NOp   2
                         Standard orientation:                         
 ---------------------------------------------------------------------
 Center     Atomic      Atomic             Coordinates (Angstroms)
 Number     Number       Type             X           Y           Z
 ---------------------------------------------------------------------
      1         28           0        0.000000    0.000000   -1.157247
      2         28           0        0.000000    0.000000    1.161557
      3          6           0        0.000000    1.556987   -0.157315
      4          6           0        0.000000    0.000000   -2.907821
      5          6           0        0.000000   -1.556987   -0.157315
      6          8           0        0.000000    0.000000   -4.068684
      7          8           0        0.000000   -2.694620    0.109300
      8          8           0        0.000000    2.694620    0.109300
      9          6           0        0.000000    0.000000    2.909411
     10          8           0        0.000000    0.000000    4.069779
 ---------------------------------------------------------------------
 Rotational constants (GHZ):      1.7399358      0.5681730      0.4283093
 Standard basis: 6-311+G(d) (5D, 7F)
 There are   130 symmetry adapted basis functions of A1  symmetry.
 There are    26 symmetry adapted basis functions of A2  symmetry.
 There are    58 symmetry adapted basis functions of B1  symmetry.
 There are    78 symmetry adapted basis functions of B2  symmetry.
 Integral buffers will be    262144 words long.
 Raffenetti 2 integral format.
 Two-electron integral symmetry is turned on.
   292 basis functions,   476 primitive gaussians,   314 cartesian basis functions
    57 alpha electrons       56 beta electrons
       nuclear repulsion energy      1022.0512066930 Hartrees.
 NAtoms=   10 NActive=   10 NUniq=    8 SFac= 1.17D+00 NAtFMM=   80 NAOKFM=F Big=F
 One-electron integrals computed using PRISM.
 NBasis=   292 RedAO= T  NBF=   130    26    58    78
 NBsUse=   292 1.00D-06 NBFU=   130    26    58    78
 Harris functional with IExCor=  402 diagonalized for initial guess.
 ExpMin= 1.39D-02 ExpMax= 2.85D+05 ExpMxC= 9.63D+03 IAcc=3 IRadAn=         5 AccDes= 0.00D+00
 HarFok:  IExCor=  402 AccDes= 0.00D+00 IRadAn=         5 IDoV= 1
 ScaDFX=  1.000000  1.000000  1.000000  1.000000
 FoFCou: FMM=F IPFlag=           0 FMFlag=      100000 FMFlg1=           0
         NFxFlg=           0 DoJE=T BraDBF=F KetDBF=T FulRan=T
         Omega=  0.000000  0.000000  1.000000  0.000000  0.000000 ICntrl=     500 IOpCl=  0
         NMat0=    1 NMatS0=    1 NMatT0=    0 NMatD0=    1 NMtDS0=    0 NMtDT0=    0
         I1Cent=           4 NGrid=           0.
 Petite list used in FoFCou.
 Initial guess orbital symmetries:
 Alpha Orbitals:
       Occupied  (A1) (A1) (A1) (A1) (A1) (B2) (B1) (A1) (B2) (B1)
                 (A1) (B2) (A1) (A1) (B2) (A1) (A1) (A1) (A1) (A1)
                 (A1) (B2) (A1) (B1) (B2) (B1) (A1) (B2) (A1) (A1)
                 (A1) (B2) (A1) (A1) (A1) (B2) (A1) (B2) (B1) (A2)
                 (A1) (B1) (B2) (B1) (B2) (A1) (A1) (B1) (B2) (A2)
                 (B2) (A1) (B1) (A1) (A2) (A1) (B1)
       Virtual   (B2) (B1) (A2) (B1) (A1) (B2) (B2) (A1) (A1) (B1)
                 (B2) (A1) (B1) (A1) (B2) (A1) (A1) (A2) (B1) (A1)
                 (B2) (A1) (B1) (A1) (B1) (B2) (A1) (A1) (B2) (B2)
                 (A1) (B2) (B1) (A1) (B1) (A1) (A2) (B2) (A1) (B1)
                 (A1) (A1) (B2) (A2) (B2) (B1) (A1) (A1) (B2) (A1)
                 (B1) (A1) (A1) (B2) (B2) (B2) (A1) (A2) (B1) (A1)
                 (A1) (B2) (A1) (A1) (B1) (B1) (A1) (A2) (B2) (B2)
                 (B1) (B2) (A1) (B2) (B1) (A1) (B2) (A1) (A1) (B2)
                 (A1) (A1) (A1) (B2) (A1) (A1) (A2) (A1) (B1) (B1)
                 (B1) (B2) (A1) (A1) (B2) (A1) (B2) (B2) (A1) (A2)
                 (A2) (A1) (B2) (B1) (A2) (B1) (A1) (B2) (A2) (B1)
                 (B1) (A1) (B2) (A1) (A1) (B2) (B2) (A2) (A1) (A1)
                 (A1) (B1) (A2) (B2) (B1) (A1) (B1) (A1) (B1) (A1)
                 (B2) (B2) (A1) (B2) (A1) (A1) (B2) (B1) (A2) (B1)
                 (B1) (B2) (A1) (B2) (A1) (A2) (B1) (A2) (A1) (A2)
                 (A1) (B2) (A1) (B2) (A1) (A1) (A1) (B2) (A1) (A2)
                 (B1) (B1) (B1) (B2) (B2) (A1) (B2) (A2) (B1) (B1)
                 (A2) (B2) (A1) (B2) (A1) (B1) (B1) (A1) (B2) (B2)
                 (A1) (A1) (B2) (A1) (A1) (A1) (A1) (A2) (B1) (B1)
                 (B1) (B2) (B2) (B2) (A1) (B2) (A1) (A1) (A1) (A2)
                 (B1) (A2) (A1) (A1) (B1) (A1) (B2) (B2) (A1) (B1)
                 (B1) (B2) (B2) (A1) (A1) (A1) (A1) (B2) (A1) (A1)
                 (A1) (B1) (B1) (B2) (B2) (A1) (A1) (B2) (A1) (A1)
                 (A1) (A1) (A1) (A1) (A1)
 Beta  Orbitals:
       Occupied  (A1) (A1) (A1) (A1) (A1) (B2) (B1) (A1) (B2) (B1)
                 (A1) (B2) (A1) (A1) (B2) (A1) (A1) (A1) (A1) (A1)
                 (A1) (B2) (A1) (B1) (B2) (B1) (A1) (B2) (A1) (A1)
                 (A1) (B2) (A1) (A1) (A1) (B2) (A1) (B2) (B1) (A2)
                 (A1) (B1) (B2) (B1) (B2) (A1) (A1) (B1) (B2) (A2)
                 (B2) (A1) (B1) (A1) (A2) (A1)
       Virtual   (B1) (B2) (B1) (A2) (B1) (A1) (B2) (B2) (A1) (A1)
                 (B1) (B2) (A1) (B1) (A1) (B2) (A1) (A1) (A2) (B1)
                 (A1) (B2) (A1) (B1) (A1) (B1) (B2) (A1) (A1) (B2)
                 (B2) (A1) (B2) (B1) (A1) (B1) (A1) (A2) (B2) (A1)
                 (B1) (A1) (A1) (B2) (A2) (B2) (B1) (A1) (A1) (B2)
                 (A1) (B1) (A1) (A1) (B2) (B2) (B2) (A1) (A2) (B1)
                 (A1) (A1) (B2) (A1) (A1) (B1) (B1) (A1) (A2) (B2)
                 (B2) (B1) (B2) (A1) (B2) (B1) (A1) (B2) (A1) (A1)
                 (B2) (A1) (A1) (A1) (B2) (A1) (A1) (A2) (A1) (B1)
                 (B1) (B1) (B2) (A1) (A1) (B2) (A1) (B2) (B2) (A1)
                 (A2) (A2) (A1) (B2) (B1) (A2) (B1) (A1) (B2) (A2)
                 (B1) (B1) (A1) (B2) (A1) (A1) (B2) (B2) (A2) (A1)
                 (A1) (A1) (B1) (A2) (B2) (B1) (A1) (B1) (A1) (B1)
                 (A1) (B2) (B2) (A1) (B2) (A1) (A1) (B2) (B1) (A2)
                 (B1) (B1) (B2) (A1) (B2) (A1) (A2) (B1) (A2) (A1)
                 (A2) (A1) (B2) (A1) (B2) (A1) (A1) (A1) (B2) (A1)
                 (A2) (B1) (B1) (B1) (B2) (B2) (A1) (B2) (A2) (B1)
                 (B1) (A2) (B2) (A1) (B2) (A1) (B1) (B1) (A1) (B2)
                 (B2) (A1) (A1) (B2) (A1) (A1) (A1) (A1) (A2) (B1)
                 (B1) (B1) (B2) (B2) (B2) (A1) (B2) (A1) (A1) (A1)
                 (A2) (B1) (A2) (A1) (A1) (B1) (A1) (B2) (B2) (A1)
                 (B1) (B1) (B2) (B2) (A1) (A1) (A1) (A1) (B2) (A1)
                 (A1) (A1) (B1) (B1) (B2) (B2) (A1) (A1) (B2) (A1)
                 (A1) (A1) (A1) (A1) (A1) (A1)
 The electronic state of the initial guess is 2-B1.
 Initial guess <Sx>= 0.0000 <Sy>= 0.0000 <Sz>= 0.5000 <S**2>= 0.7500 S= 0.5000
 Requested convergence on RMS density matrix=1.00D-08 within  80 cycles.
 Requested convergence on MAX density matrix=1.00D-06.
 Requested convergence on             energy=1.00D-06.
 No special actions if energy rises.
 EnCoef did   100 forward-backward iterations
 EnCoef did   100 forward-backward iterations
 EnCoef did    19 forward-backward iterations
 EnCoef did     2 forward-backward iterations
 EnCoef did     2 forward-backward iterations
 Restarting incremental Fock formation.
 SCF Done:  E(UB3LYP) =  -3470.23054788     A.U. after   24 cycles
             Convg  =    0.4374D-08             -V/T =  2.0011
 <Sx>= 0.0000 <Sy>= 0.0000 <Sz>= 0.5000 <S**2>= 0.7671 S= 0.5085
 <L.S>= 0.000000000000E+00
 Annihilation of the first spin contaminant:
 S**2 before annihilation     0.7671,   after     0.7502
 QCSCF skips out because SCF is already converged.

 **********************************************************************

            Population analysis using the SCF density.

 **********************************************************************

 Orbital symmetries:
 Alpha Orbitals:
       Occupied  (A1) (A1) (A1) (A1) (A1) (B2) (B1) (A1) (B2) (B1)
                 (A1) (A1) (A1) (B2) (A1) (A1) (A1) (B2) (A1) (A1)
                 (A1) (B2) (A1) (B1) (B2) (B1) (A1) (A1) (A1) (B2)
                 (A1) (A1) (B2) (A1) (A1) (A1) (B2) (B1) (B1) (B2)
                 (B1) (B2) (A2) (A1) (B2) (A1) (B1) (A1) (A2) (B2)
                 (A1) (A1) (B1) (A2) (B2) (A1) (B1)
       Virtual   (B2) (B1) (A1) (A1) (A2) (B2) (B1) (A1) (B2) (A1)
                 (B2) (B1) (A1) (A1) (B2) (B1) (A1) (A1) (B2) (A2)
                 (B1) (A1) (A1) (B1) (B2) (B2) (B1) (A1) (A1) (B2)
                 (B2) (A1) (B1) (A1) (B1) (B2) (A2) (A1) (A1) (B1)
                 (A1) (B2) (A1) (B2) (A1) (B2) (A1) (B1) (A1) (B2)
                 (A2) (A1) (B1) (A1) (A1) (B2) (A2) (B2) (B1) (A1)
                 (A1) (B2) (A1) (B1) (A1) (B1) (A2) (B2) (A1) (B1)
                 (B2) (B2) (B1) (B2) (A1) (A1) (B2) (A1) (A1) (B2)
                 (A1) (A1) (A1) (B2) (A1) (A1) (A1) (A2) (B1) (B1)
                 (B1) (B2) (A1) (A1) (B2) (A1) (B2) (B2) (A1) (A2)
                 (A2) (A1) (B2) (B1) (A2) (B1) (A1) (A2) (B2) (B1)
                 (B1) (A1) (A1) (B2) (A1) (B2) (A1) (B2) (A2) (A1)
                 (A1) (A2) (B1) (B2) (B1) (A1) (B1) (B1) (A1) (A1)
                 (B2) (B2) (A1) (B2) (A1) (A1) (B2) (B1) (B1) (A2)
                 (B1) (B2) (A1) (B2) (A2) (A1) (A2) (A1) (B1) (A1)
                 (A2) (B2) (A1) (B2) (A1) (A1) (A1) (B2) (A1) (B1)
                 (A2) (B1) (B2) (B1) (B2) (A1) (B2) (A2) (B1) (B1)
                 (A2) (A1) (B2) (B2) (B1) (A1) (B1) (A1) (B2) (A1)
                 (B2) (A1) (B2) (A1) (A1) (A1) (A1) (A2) (B1) (B1)
                 (B1) (B2) (B2) (B2) (A1) (A1) (B2) (A1) (A1) (A2)
                 (B1) (A2) (A1) (A1) (B1) (A1) (B2) (B2) (A1) (B1)
                 (B1) (B2) (B2) (A1) (A1) (A1) (A1) (B2) (A1) (A1)
                 (A1) (B1) (B1) (B2) (B2) (A1) (A1) (B2) (A1) (A1)
                 (A1) (A1) (A1) (A1) (A1)
 Beta  Orbitals:
       Occupied  (A1) (A1) (A1) (A1) (A1) (B2) (B1) (A1) (B2) (B1)
                 (A1) (A1) (A1) (B2) (A1) (A1) (B2) (A1) (A1) (A1)
                 (A1) (B2) (A1) (B1) (B2) (B1) (A1) (A1) (A1) (B2)
                 (A1) (A1) (B2) (A1) (A1) (B2) (A1) (B2) (B1) (B2)
                 (B1) (A1) (B2) (B1) (A2) (A1) (B1) (A1) (A2) (B2)
                 (A1) (B1) (A1) (A2) (B2) (A1)
       Virtual   (B1) (B2) (A1) (A1) (B1) (B2) (A1) (A2) (B1) (B2)
                 (A1) (B2) (B1) (A1) (B2) (A1) (B1) (A1) (A1) (B2)
                 (A2) (B1) (A1) (A1) (B1) (B2) (B2) (B1) (A1) (A1)
                 (B2) (B2) (A1) (B1) (A1) (B1) (B2) (A2) (A1) (A1)
                 (B1) (A1) (B2) (A1) (B2) (A1) (B2) (A1) (B1) (A1)
                 (B2) (A1) (A2) (B1) (A1) (A1) (B2) (A2) (B2) (A1)
                 (B1) (A1) (B2) (A1) (A1) (B1) (B1) (B2) (A2) (A1)
                 (B1) (B2) (B2) (B1) (A1) (B2) (A1) (B2) (A1) (A1)
                 (B2) (A1) (A1) (A1) (B2) (A1) (A1) (A1) (B1) (A2)
                 (B1) (B1) (B2) (A1) (A1) (B2) (A1) (B2) (B2) (A1)
                 (A2) (A2) (A1) (B2) (B1) (A2) (B1) (A1) (A2) (B2)
                 (B1) (B1) (A1) (A1) (B2) (A1) (B2) (A1) (B2) (A2)
                 (A1) (A1) (A2) (B1) (B2) (B1) (A1) (B1) (B1) (A1)
                 (A1) (B2) (B2) (A1) (B2) (A1) (A1) (B2) (B1) (B1)
                 (A2) (B1) (B2) (A1) (B2) (A2) (A1) (A2) (A1) (A1)
                 (B1) (A2) (B2) (A1) (B2) (A1) (A1) (A1) (B2) (A1)
                 (B1) (A2) (B1) (B2) (B1) (B2) (A1) (B2) (A2) (B1)
                 (B1) (A2) (A1) (B2) (B2) (B1) (A1) (B1) (A1) (B2)
                 (A1) (B2) (A1) (B2) (A1) (A1) (A1) (A1) (B1) (A2)
                 (B1) (B1) (B2) (B2) (B2) (A1) (A1) (B2) (A1) (A1)
                 (A2) (B1) (A2) (A1) (A1) (B1) (A1) (B2) (B2) (A1)
                 (B1) (B1) (B2) (B2) (A1) (A1) (A1) (A1) (B2) (A1)
                 (A1) (A1) (B1) (B1) (B2) (B2) (A1) (A1) (B2) (A1)
                 (A1) (A1) (A1) (A1) (A1) (A1)
 The electronic state is 2-B1.
 Alpha  occ. eigenvalues -- -299.66655-299.64122 -35.59457 -35.56133 -31.04317
 Alpha  occ. eigenvalues --  -31.04195 -31.02982 -31.01230 -31.00505 -31.00030
 Alpha  occ. eigenvalues --  -19.05978 -19.05469 -19.04599 -19.04599 -10.13724
 Alpha  occ. eigenvalues --  -10.13561 -10.13499 -10.13499  -3.85437  -3.82541
 Alpha  occ. eigenvalues --   -2.45726  -2.45052  -2.43152  -2.42647  -2.41454
 Alpha  occ. eigenvalues --   -2.40337  -0.99105  -0.98702  -0.97527  -0.97513
 Alpha  occ. eigenvalues --   -0.44771  -0.43181  -0.42679  -0.42544  -0.34818
 Alpha  occ. eigenvalues --   -0.31973  -0.31922  -0.31872  -0.31592  -0.31521
 Alpha  occ. eigenvalues --   -0.30899  -0.30852  -0.30822  -0.30508  -0.30308
 Alpha  occ. eigenvalues --   -0.29517  -0.13687  -0.12621  -0.12303  -0.11450
 Alpha  occ. eigenvalues --   -0.11124  -0.09534  -0.09524  -0.09077  -0.09010
 Alpha  occ. eigenvalues --   -0.08171  -0.01070
 Alpha virt. eigenvalues --    0.05449   0.09238   0.09352   0.09613   0.11688
 Alpha virt. eigenvalues --    0.12602   0.12605   0.12816   0.14235   0.14474
 Alpha virt. eigenvalues --    0.14847   0.15982   0.16559   0.16921   0.16923
 Alpha virt. eigenvalues --    0.17845   0.18547   0.18993   0.19173   0.20017
 Alpha virt. eigenvalues --    0.21810   0.22998   0.23856   0.24589   0.25246
 Alpha virt. eigenvalues --    0.26087   0.26118   0.28486   0.29786   0.30990
 Alpha virt. eigenvalues --    0.33042   0.33450   0.36070   0.37041   0.37199
 Alpha virt. eigenvalues --    0.37564   0.38258   0.38958   0.39147   0.39581
 Alpha virt. eigenvalues --    0.39857   0.40755   0.41458   0.41582   0.42821
 Alpha virt. eigenvalues --    0.43021   0.43663   0.43820   0.44968   0.45604
 Alpha virt. eigenvalues --    0.46104   0.46168   0.46320   0.50890   0.51724
 Alpha virt. eigenvalues --    0.53362   0.56262   0.58167   0.58523   0.58752
 Alpha virt. eigenvalues --    0.60610   0.65905   0.69491   0.70865   0.71024
 Alpha virt. eigenvalues --    0.73196   0.75432   0.75838   0.76322   0.78055
 Alpha virt. eigenvalues --    0.78958   0.80957   0.84330   0.87133   0.87363
 Alpha virt. eigenvalues --    0.88585   0.91085   0.93558   0.95892   0.97944
 Alpha virt. eigenvalues --    0.98028   1.01048   1.03677   1.11463   1.11642
 Alpha virt. eigenvalues --    1.14883   1.21145   1.21917   1.22103   1.24184
 Alpha virt. eigenvalues --    1.25381   1.26236   1.26769   1.27964   1.28634
 Alpha virt. eigenvalues --    1.29551   1.30362   1.32022   1.32385   1.39317
 Alpha virt. eigenvalues --    1.42018   1.44605   1.48111   1.48670   1.49938
 Alpha virt. eigenvalues --    1.51458   1.52247   1.53223   1.53792   1.58118
 Alpha virt. eigenvalues --    1.60983   1.64118   1.67469   1.67596   1.73552
 Alpha virt. eigenvalues --    1.75590   1.78231   1.79844   1.80069   1.88138
 Alpha virt. eigenvalues --    1.90809   1.92880   1.93003   1.94554   2.00854
 Alpha virt. eigenvalues --    2.01148   2.02436   2.06153   2.06319   2.13050
 Alpha virt. eigenvalues --    2.18786   2.21936   2.22326   2.31785   2.32059
 Alpha virt. eigenvalues --    2.50538   2.67173   2.79455   2.81308   2.81900
 Alpha virt. eigenvalues --    2.82519   2.83448   2.84986   2.91173   2.93079
 Alpha virt. eigenvalues --    2.93276   2.93512   2.93848   2.94484   2.94528
 Alpha virt. eigenvalues --    2.94599   2.96134   2.97715   3.04683   3.06793
 Alpha virt. eigenvalues --    3.26416   3.31472   3.34787   3.41825   3.46941
 Alpha virt. eigenvalues --    3.47684   3.48427   3.49617   3.49824   3.52419
 Alpha virt. eigenvalues --    3.53756   3.54849   3.73914   3.74600   3.79056
 Alpha virt. eigenvalues --    3.80241   3.81132   3.81887   3.85169   3.85583
 Alpha virt. eigenvalues --    3.85722   3.86748   3.94583   3.95608   3.97499
 Alpha virt. eigenvalues --    3.98086   4.07260   4.09819   4.14323   4.23484
 Alpha virt. eigenvalues --    4.51560   4.66090   5.12987   5.13139   5.14666
 Alpha virt. eigenvalues --    5.16497   5.17177   5.19003   5.22692   5.24437
 Alpha virt. eigenvalues --    5.74608   5.74745   5.77442   5.78711   6.92044
 Alpha virt. eigenvalues --    6.95871   6.97203   7.03309   7.05634   7.08928
 Alpha virt. eigenvalues --    7.17113   7.22896   7.25706   7.57972   8.91476
 Alpha virt. eigenvalues --    8.92555   9.12207   9.26410   9.38553   9.44124
 Alpha virt. eigenvalues --   24.02263  24.02787  24.04773  24.07025  30.16450
 Alpha virt. eigenvalues --   30.50277  36.44193  36.46172  36.61352  36.69893
 Alpha virt. eigenvalues --   36.80963  36.83290  50.11647  50.13881  50.15978
 Alpha virt. eigenvalues --   50.16405 162.54086 162.82388 845.24776 845.53850
  Beta  occ. eigenvalues -- -299.66630-299.64105 -35.59771 -35.56398 -31.04577
  Beta  occ. eigenvalues --  -31.04422 -31.03217 -31.01480 -31.00654 -31.00249
  Beta  occ. eigenvalues --  -19.05813 -19.05261 -19.04301 -19.04301 -10.13614
  Beta  occ. eigenvalues --  -10.13439 -10.13355 -10.13355  -3.86055  -3.83073
  Beta  occ. eigenvalues --   -2.46413  -2.45650  -2.43822  -2.43293  -2.41848
  Beta  occ. eigenvalues --   -2.40943  -0.98819  -0.98343  -0.97017  -0.97003
  Beta  occ. eigenvalues --   -0.44035  -0.42730  -0.42015  -0.42013  -0.34420
  Beta  occ. eigenvalues --   -0.31677  -0.31625  -0.31334  -0.30960  -0.30564
  Beta  occ. eigenvalues --   -0.30475  -0.30196  -0.29991  -0.29356  -0.29332
  Beta  occ. eigenvalues --   -0.29086  -0.14161  -0.12828  -0.12600  -0.11816
  Beta  occ. eigenvalues --   -0.11151  -0.10107  -0.09730  -0.09503  -0.09063
  Beta  occ. eigenvalues --   -0.08229
  Beta virt. eigenvalues --    0.04207   0.05803   0.09386   0.09615   0.10408
  Beta virt. eigenvalues --    0.12719   0.12918   0.13743   0.14098   0.14267
  Beta virt. eigenvalues --    0.14484   0.14894   0.16221   0.16641   0.16922
  Beta virt. eigenvalues --    0.16956   0.17976   0.18699   0.18988   0.19132
  Beta virt. eigenvalues --    0.20075   0.21964   0.23033   0.23936   0.25054
  Beta virt. eigenvalues --    0.25165   0.26304   0.26785   0.28973   0.30012
  Beta virt. eigenvalues --    0.31032   0.33150   0.33659   0.36382   0.37173
  Beta virt. eigenvalues --    0.37476   0.37593   0.38448   0.39010   0.39292
  Beta virt. eigenvalues --    0.39829   0.39937   0.40775   0.41489   0.41616
  Beta virt. eigenvalues --    0.42937   0.43019   0.43809   0.44425   0.45152
  Beta virt. eigenvalues --    0.45588   0.46352   0.46663   0.46921   0.51029
  Beta virt. eigenvalues --    0.52008   0.53505   0.57068   0.58450   0.59121
  Beta virt. eigenvalues --    0.59417   0.61029   0.66167   0.69731   0.71380
  Beta virt. eigenvalues --    0.71584   0.73735   0.75993   0.76091   0.76556
  Beta virt. eigenvalues --    0.78683   0.79141   0.81071   0.84906   0.87678
  Beta virt. eigenvalues --    0.87812   0.88813   0.91346   0.93761   0.96080
  Beta virt. eigenvalues --    0.98240   0.98368   1.01485   1.03965   1.11885
  Beta virt. eigenvalues --    1.11926   1.15629   1.21555   1.22531   1.22618
  Beta virt. eigenvalues --    1.24733   1.25849   1.26346   1.26940   1.28115
  Beta virt. eigenvalues --    1.28754   1.29713   1.30519   1.32195   1.32570
  Beta virt. eigenvalues --    1.39985   1.42663   1.45187   1.48304   1.49388
  Beta virt. eigenvalues --    1.50586   1.52127   1.52604   1.53888   1.53920
  Beta virt. eigenvalues --    1.58972   1.61573   1.64475   1.67737   1.67802
  Beta virt. eigenvalues --    1.73924   1.76021   1.78405   1.79956   1.80211
  Beta virt. eigenvalues --    1.88355   1.90972   1.93198   1.93235   1.94769
  Beta virt. eigenvalues --    2.00941   2.01350   2.02670   2.06404   2.06527
  Beta virt. eigenvalues --    2.13297   2.18898   2.22044   2.22550   2.31937
  Beta virt. eigenvalues --    2.32100   2.50899   2.67431   2.80276   2.81984
  Beta virt. eigenvalues --    2.82821   2.83326   2.83581   2.85242   2.91366
  Beta virt. eigenvalues --    2.93586   2.93781   2.94155   2.94379   2.94816
  Beta virt. eigenvalues --    2.95381   2.95484   2.96960   2.98485   3.04876
  Beta virt. eigenvalues --    3.07037   3.26650   3.31618   3.34949   3.41924
  Beta virt. eigenvalues --    3.47433   3.48414   3.48899   3.49699   3.50510
  Beta virt. eigenvalues --    3.52533   3.53902   3.54977   3.73611   3.74469
  Beta virt. eigenvalues --    3.78938   3.80058   3.81197   3.81762   3.85136
  Beta virt. eigenvalues --    3.85465   3.85785   3.86567   3.94840   3.95603
  Beta virt. eigenvalues --    3.97603   3.98226   4.07217   4.09747   4.14229
  Beta virt. eigenvalues --    4.23362   4.51482   4.66002   5.13892   5.14156
  Beta virt. eigenvalues --    5.15791   5.17263   5.17337   5.19202   5.22968
  Beta virt. eigenvalues --    5.24715   5.74843   5.75023   5.77637   5.78905
  Beta virt. eigenvalues --    6.91720   6.95329   6.96831   7.03071   7.05422
  Beta virt. eigenvalues --    7.08384   7.16838   7.22615   7.25413   7.57714
  Beta virt. eigenvalues --    8.91186   8.92260   9.12001   9.26110   9.38211
  Beta virt. eigenvalues --    9.43798  24.02408  24.02936  24.04939  24.07161
  Beta virt. eigenvalues --   30.16081  30.49916  36.43874  36.45873  36.61146
  Beta virt. eigenvalues --   36.69590  36.80624  36.82953  50.11943  50.14094
  Beta virt. eigenvalues --   50.16171  50.16667 162.53947 162.82251 845.24759
  Beta virt. eigenvalues --  845.53833
          Condensed to atoms (all electrons):
              1          2          3          4          5          6
     1  Ni  29.036065  -0.472170   0.158797  -0.811403   0.158797   0.138062
     2  Ni  -0.472170  29.688545   0.275018  -1.106486   0.275018   0.042147
     3  C    0.158797   0.275018   6.421698  -0.361531   0.342644   0.010141
     4  C   -0.811403  -1.106486  -0.361531   9.471094  -0.361531  -0.234777
     5  C    0.158797   0.275018   0.342644  -0.361531   6.421698   0.010141
     6  O    0.138062   0.042147   0.010141  -0.234777   0.010141   8.174730
     7  O    0.013923  -0.064360  -0.035828   0.019043   0.144097   0.001090
     8  O    0.013923  -0.064360   0.144097   0.019043  -0.035828   0.001090
     9  C   -1.041459  -1.361381  -0.570748  -0.142193  -0.570748   0.000714
    10  O    0.040812   0.187729   0.019934   0.001257   0.019934   0.000005
              7          8          9         10
     1  Ni   0.013923   0.013923  -1.041459   0.040812
     2  Ni  -0.064360  -0.064360  -1.361381   0.187729
     3  C   -0.035828   0.144097  -0.570748   0.019934
     4  C    0.019043   0.019043  -0.142193   0.001257
     5  C    0.144097  -0.035828  -0.570748   0.019934
     6  O    0.001090   0.001090   0.000714   0.000005
     7  O    8.053176   0.001677   0.038969   0.000119
     8  O    0.001677   8.053176   0.038969   0.000119
     9  C    0.038969   0.038969  10.313396  -0.276622
    10  O    0.000119   0.000119  -0.276622   8.154650
 Mulliken atomic charges:
              1
     1  Ni   0.764650
     2  Ni   0.600301
     3  C   -0.404222
     4  C   -0.492516
     5  C   -0.404222
     6  O   -0.143344
     7  O   -0.171907
     8  O   -0.171907
     9  C   -0.428896
    10  O   -0.147938
 Sum of Mulliken atomic charges =  -1.00000
 Mulliken charges with hydrogens summed into heavy atoms:
              1
     1  Ni   0.764650
     2  Ni   0.600301
     3  C   -0.404222
     4  C   -0.492516
     5  C   -0.404222
     6  O   -0.143344
     7  O   -0.171907
     8  O   -0.171907
     9  C   -0.428896
    10  O   -0.147938
 Sum of Mulliken charges with hydrogens summed into heavy atoms =  -1.00000
          Atomic-Atomic Spin Densities.
              1          2          3          4          5          6
     1  Ni  -0.139708   0.101297   0.050461   0.122769   0.050461  -0.022225
     2  Ni   0.101297  -0.156273  -0.000861   0.051298  -0.000861  -0.002930
     3  C    0.050461  -0.000861   0.068621   0.060766  -0.036657  -0.002772
     4  C    0.122769   0.051298   0.060766  -0.159625   0.060766  -0.029756
     5  C    0.050461  -0.000861  -0.036657   0.060766   0.068621  -0.002772
     6  O   -0.022225  -0.002930  -0.002772  -0.029756  -0.002772   0.121285
     7  O   -0.013173  -0.009145   0.003613  -0.004782  -0.049451   0.000209
     8  O   -0.013173  -0.009145  -0.049451  -0.004782   0.003613   0.000209
     9  C    0.025257   0.121127   0.058128   0.000020   0.058128  -0.000105
    10  O   -0.001999  -0.017535  -0.001996  -0.000031  -0.001996   0.000000
              7          8          9         10
     1  Ni  -0.013173  -0.013173   0.025257  -0.001999
     2  Ni  -0.009145  -0.009145   0.121127  -0.017535
     3  C    0.003613  -0.049451   0.058128  -0.001996
     4  C   -0.004782  -0.004782   0.000020  -0.000031
     5  C   -0.049451   0.003613   0.058128  -0.001996
     6  O    0.000209   0.000209  -0.000105   0.000000
     7  O    0.166684  -0.000101  -0.007712   0.000293
     8  O   -0.000101   0.166684  -0.007712   0.000293
     9  C   -0.007712  -0.007712  -0.140658  -0.023077
    10  O    0.000293   0.000293  -0.023077   0.095357
 Mulliken atomic spin densities:
              1
     1  Ni   0.159968
     2  Ni   0.076972
     3  C    0.149852
     4  C    0.096641
     5  C    0.149852
     6  O    0.061143
     7  O    0.086435
     8  O    0.086435
     9  C    0.083395
    10  O    0.049307
 Sum of Mulliken atomic spin densities =   1.00000
 Electronic spatial extent (au):  <R**2>=           2302.5916
 Charge=             -1.0000 electrons
 Dipole moment (field-independent basis, Debye):
    X=              0.0000    Y=              0.0000    Z=              0.1111  Tot=              0.1111
 Quadrupole moment (field-independent basis, Debye-Ang):
   XX=            -76.2062   YY=            -89.7163   ZZ=           -109.3106
   XY=              0.0000   XZ=              0.0000   YZ=              0.0000
 Traceless Quadrupole moment (field-independent basis, Debye-Ang):
   XX=             15.5382   YY=              2.0281   ZZ=            -17.5662
   XY=              0.0000   XZ=              0.0000   YZ=              0.0000
 Octapole moment (field-independent basis, Debye-Ang**2):
  XXX=              0.0000  YYY=              0.0000  ZZZ=              4.8342  XYY=              0.0000
  XXY=              0.0000  XXZ=              1.0526  XZZ=              0.0000  YZZ=              0.0000
  YYZ=             -2.0623  XYZ=              0.0000
 Hexadecapole moment (field-independent basis, Debye-Ang**3):
 XXXX=           -106.1489 YYYY=           -888.6668 ZZZZ=          -2673.8919 XXXY=              0.0000
 XXXZ=              0.0000 YYYX=              0.0000 YYYZ=              0.0000 ZZZX=              0.0000
 ZZZY=              0.0000 XXYY=           -137.9694 XXZZ=           -350.3652 YYZZ=           -448.6235
 XXYZ=              0.0000 YYXZ=              0.0000 ZZXY=              0.0000
 N-N= 1.022051206693D+03 E-N=-1.549219772536D+04  KE= 5.199709604592D+03
 Symmetry A1   KE= 3.859225080363D+03
 Symmetry A2   KE= 5.404641251520D+01
 Symmetry B1   KE= 5.659052854640D+02
 Symmetry B2   KE= 7.205328262503D+02
                          Isotropic Fermi Contact Couplings
        Atom                 a.u.       MegaHertz       Gauss      10(-4) cm-1
     1  Ni(61)             0.01749      -6.99658      -2.49655      -2.33381
     2  Ni(61)             0.03334     -13.34187      -4.76071      -4.45037
     3  C(13)             -0.01054     -11.84731      -4.22741      -3.95184
     4  C(13)             -0.00824      -9.26430      -3.30573      -3.09024
     5  C(13)             -0.01054     -11.84731      -4.22741      -3.95184
     6  O(17)              0.00528      -3.20073      -1.14210      -1.06765
     7  O(17)              0.00937      -5.68154      -2.02732      -1.89516
     8  O(17)              0.00937      -5.68154      -2.02732      -1.89516
     9  C(13)             -0.00497      -5.58474      -1.99277      -1.86287
    10  O(17)              0.00427      -2.58887      -0.92377      -0.86356
 --------------------------------------------------------
       Center         ----  Spin Dipole Couplings  ----
                      3XX-RR        3YY-RR        3ZZ-RR
 --------------------------------------------------------
     1   Atom        0.608561     -0.252892     -0.355669
     2   Atom        0.344049     -0.037045     -0.307003
     3   Atom        0.138008     -0.071014     -0.066993
     4   Atom        0.115908     -0.057252     -0.058657
     5   Atom        0.138008     -0.071014     -0.066993
     6   Atom        0.307128     -0.140432     -0.166696
     7   Atom        0.439463     -0.236468     -0.202995
     8   Atom        0.439463     -0.236468     -0.202995
     9   Atom        0.101098     -0.049572     -0.051526
    10   Atom        0.248943     -0.117706     -0.131237
 --------------------------------------------------------
                        XY            XZ            YZ
 --------------------------------------------------------
     1   Atom        0.000000      0.000000      0.000000
     2   Atom        0.000000      0.000000      0.000000
     3   Atom        0.000000      0.000000      0.001782
     4   Atom        0.000000      0.000000      0.000000
     5   Atom        0.000000      0.000000     -0.001782
     6   Atom        0.000000      0.000000      0.000000
     7   Atom        0.000000      0.000000      0.004884
     8   Atom        0.000000      0.000000     -0.004884
     9   Atom        0.000000      0.000000      0.000000
    10   Atom        0.000000      0.000000      0.000000
 --------------------------------------------------------


 ---------------------------------------------------------------------------------
              Anisotropic Spin Dipole Couplings in Principal Axis System
 ---------------------------------------------------------------------------------

       Atom             a.u.   MegaHertz   Gauss  10(-4) cm-1        Axes

              Baa    -0.3557    16.987     6.062     5.666  0.0000  0.0000  1.0000
     1 Ni(61) Bbb    -0.2529    12.079     4.310     4.029  0.0000  1.0000  0.0000
              Bcc     0.6086   -29.066   -10.371    -9.695  1.0000  0.0000  0.0000
 
              Baa    -0.3070    14.663     5.232     4.891  0.0000  0.0000  1.0000
     2 Ni(61) Bbb    -0.0370     1.769     0.631     0.590  0.0000  1.0000  0.0000
              Bcc     0.3440   -16.432    -5.863    -5.481  1.0000  0.0000  0.0000
 
              Baa    -0.0717    -9.620    -3.433    -3.209  0.0000  0.9350 -0.3547
     3 C(13)  Bbb    -0.0663    -8.899    -3.175    -2.968  0.0000  0.3547  0.9350
              Bcc     0.1380    18.519     6.608     6.177  1.0000  0.0000  0.0000
 
              Baa    -0.0587    -7.871    -2.809    -2.626  0.0000  0.0000  1.0000
     4 C(13)  Bbb    -0.0573    -7.683    -2.741    -2.563  0.0000  1.0000  0.0000
              Bcc     0.1159    15.554     5.550     5.188  1.0000  0.0000  0.0000
 
              Baa    -0.0717    -9.620    -3.433    -3.209  0.0000  0.9350  0.3547
     5 C(13)  Bbb    -0.0663    -8.899    -3.175    -2.968  0.0000 -0.3547  0.9350
              Bcc     0.1380    18.519     6.608     6.177  1.0000  0.0000  0.0000
 
              Baa    -0.1667    12.062     4.304     4.023  0.0000  0.0000  1.0000
     6 O(17)  Bbb    -0.1404    10.162     3.626     3.390  0.0000  1.0000  0.0000
              Bcc     0.3071   -22.224    -7.930    -7.413  1.0000  0.0000  0.0000
 
              Baa    -0.2372    17.161     6.124     5.724  0.0000  0.9899 -0.1415
     7 O(17)  Bbb    -0.2023    14.638     5.223     4.883  0.0000  0.1415  0.9899
              Bcc     0.4395   -31.799   -11.347   -10.607  1.0000  0.0000  0.0000
 
              Baa    -0.2372    17.161     6.124     5.724  0.0000  0.9899  0.1415
     8 O(17)  Bbb    -0.2023    14.638     5.223     4.883  0.0000 -0.1415  0.9899
              Bcc     0.4395   -31.799   -11.347   -10.607  1.0000  0.0000  0.0000
 
              Baa    -0.0515    -6.914    -2.467    -2.306  0.0000  0.0000  1.0000
     9 C(13)  Bbb    -0.0496    -6.652    -2.374    -2.219  0.0000  1.0000  0.0000
              Bcc     0.1011    13.566     4.841     4.525  1.0000  0.0000  0.0000
 
              Baa    -0.1312     9.496     3.388     3.168  0.0000  0.0000  1.0000
    10 O(17)  Bbb    -0.1177     8.517     3.039     2.841  0.0000  1.0000  0.0000
              Bcc     0.2489   -18.013    -6.428    -6.009  1.0000  0.0000  0.0000
 

 ---------------------------------------------------------------------------------

 Calling FoFJK, ICntrl=      2127 FMM=F ISym2X=0 I1Cent= 0 IOpClX= 1 NMat=1 NMatS=1 NMatT=0.
 ***** Axes restored to original set *****
 -------------------------------------------------------------------
 Center     Atomic                   Forces (Hartrees/Bohr)
 Number     Number              X              Y              Z
 -------------------------------------------------------------------
      1       28           0.000000000    0.000000000   -0.000010541
      2       28           0.000000000    0.000000000    0.000000722
      3        6           0.000000000   -0.000003552    0.000003708
      4        6           0.000000000    0.000000000    0.000000469
      5        6           0.000000000    0.000003552    0.000003708
      6        8           0.000000000    0.000000000   -0.000002929
      7        8           0.000000000    0.000000129   -0.000000433
      8        8           0.000000000   -0.000000129   -0.000000433
      9        6           0.000000000    0.000000000    0.000001663
     10        8           0.000000000    0.000000000    0.000004066
 -------------------------------------------------------------------
 Cartesian Forces:  Max     0.000010541 RMS     0.000002535

 GradGradGradGradGradGradGradGradGradGradGradGradGradGradGradGradGradGrad
 Berny optimization.
 Search for a local minimum.
 Step number   1 out of a maximum of   40
 All quantities printed in internal units (Hartrees-Bohrs-Radians)
 Second derivative matrix not updated -- first step.
     Eigenvalues ---    0.00983   0.01909   0.03018   0.05720   0.06691
     Eigenvalues ---    0.08376   0.10969   0.14831   0.15991   0.21131
     Eigenvalues ---    0.25417   0.29940   0.37527   0.43493   0.51806
     Eigenvalues ---    0.65589   0.72351   0.86840   1.10815   1.29367
     Eigenvalues ---    2.61764   2.61995   2.70313   2.72072
 RFO step:  Lambda= 0.00000000D+00 EMin= 9.82652478D-03
 ClnCor:  largest displacement from symmetrization is 6.78D-12 for atom     8.
 Linear search not attempted -- first point.
 ClnCor:  largest displacement from symmetrization is 2.63D-28 for atom     6.
 TrRot=  0.000000  0.000000 -0.000001  0.000000  0.000000  0.000000
 Variable       Old X    -DE/DX   Delta X   Delta X   Delta X     New X
                                 (Linear)    (Quad)   (Total)
    X1        0.00000   0.00000   0.00000   0.00000   0.00000   0.00000
    Y1        0.00000   0.00000   0.00000   0.00000   0.00000   0.00000
    Z1       -2.18688  -0.00001   0.00000  -0.00002  -0.00003  -2.18691
    X2        0.00000   0.00000   0.00000   0.00000   0.00000   0.00000
    Y2        0.00000   0.00000   0.00000   0.00000   0.00000   0.00000
    Z2        2.19502   0.00000   0.00000   0.00001   0.00001   2.19503
    X3        0.00000   0.00000   0.00000   0.00000   0.00000   0.00000
    Y3        2.94228   0.00000   0.00000  -0.00001  -0.00001   2.94226
    Z3       -0.29728   0.00000   0.00000   0.00001   0.00000  -0.29728
    X4        0.00000   0.00000   0.00000   0.00000   0.00000   0.00000
    Y4        0.00000   0.00000   0.00000   0.00000   0.00000   0.00000
    Z4       -5.49499   0.00000   0.00000  -0.00003  -0.00003  -5.49502
    X5        0.00000   0.00000   0.00000   0.00000   0.00000   0.00000
    Y5       -2.94228   0.00000   0.00000   0.00001   0.00001  -2.94226
    Z5       -0.29728   0.00000   0.00000   0.00001   0.00000  -0.29728
    X6        0.00000   0.00000   0.00000   0.00000   0.00000   0.00000
    Y6        0.00000   0.00000   0.00000   0.00000   0.00000   0.00000
    Z6       -7.68870   0.00000   0.00000  -0.00004  -0.00004  -7.68874
    X7        0.00000   0.00000   0.00000   0.00000   0.00000   0.00000
    Y7       -5.09209   0.00000   0.00000   0.00002   0.00002  -5.09208
    Z7        0.20655   0.00000   0.00000   0.00001   0.00001   0.20656
    X8        0.00000   0.00000   0.00000   0.00000   0.00000   0.00000
    Y8        5.09209   0.00000   0.00000  -0.00002  -0.00002   5.09208
    Z8        0.20655   0.00000   0.00000   0.00001   0.00001   0.20656
    X9        0.00000   0.00000   0.00000   0.00000   0.00000   0.00000
    Y9        0.00000   0.00000   0.00000   0.00000   0.00000   0.00000
    Z9        5.49799   0.00000   0.00000   0.00003   0.00003   5.49802
   X10        0.00000   0.00000   0.00000   0.00000   0.00000   0.00000
   Y10        0.00000   0.00000   0.00000   0.00000   0.00000   0.00000
   Z10        7.69077   0.00000   0.00000   0.00003   0.00003   7.69080
         Item               Value     Threshold  Converged?
 Maximum Force            0.000011     0.000015     YES
 RMS     Force            0.000003     0.000010     YES
 Maximum Displacement     0.000037     0.000060     YES
 RMS     Displacement     0.000015     0.000040     YES
 Predicted change in Energy=-3.490299D-10
 Optimization completed.
    -- Stationary point found.
 GradGradGradGradGradGradGradGradGradGradGradGradGradGradGradGradGradGrad

                          Input orientation:                          
 ---------------------------------------------------------------------
 Center     Atomic      Atomic             Coordinates (Angstroms)
 Number     Number       Type             X           Y           Z
 ---------------------------------------------------------------------
      1         28           0        0.000000    0.000000   -1.157247
      2         28           0        0.000000    0.000000    1.161557
      3          6           0        0.000000    1.556987   -0.157315
      4          6           0        0.000000    0.000000   -2.907821
      5          6           0        0.000000   -1.556987   -0.157315
      6          8           0        0.000000    0.000000   -4.068684
      7          8           0        0.000000   -2.694620    0.109300
      8          8           0        0.000000    2.694620    0.109300
      9          6           0        0.000000    0.000000    2.909411
     10          8           0        0.000000    0.000000    4.069779
 ---------------------------------------------------------------------
                    Distance matrix (angstroms):
                    1          2          3          4          5
     1  Ni   0.000000
     2  Ni   2.318804   0.000000
     3  C    1.850425   2.040498   0.000000
     4  C    1.750574   4.069378   3.160616   0.000000
     5  C    1.850425   2.040498   3.113974   3.160616   0.000000
     6  O    2.911437   5.230241   4.209871   1.160863   4.209871
     7  O    2.977435   2.892788   4.259958   4.045244   1.168457
     8  O    2.977435   2.892788   1.168457   4.045244   4.259958
     9  C    4.066658   1.747854   3.439334   5.817232   3.439334
    10  O    5.227026   2.908222   4.504723   6.977600   4.504723
                    6          7          8          9         10
     6  O    0.000000
     7  O    4.971572   0.000000
     8  O    4.971572   5.389240   0.000000
     9  C    6.978095   3.886078   3.886078   0.000000
    10  O    8.138463   4.790237   4.790237   1.160368   0.000000
 Stoichiometry    C4Ni2O4(1-,2)
 Framework group  C2V[C2(OCNiNiCO),SGV(C2O2)]
 Deg. of freedom     9
 Full point group                 C2V     NOp   4
 Largest Abelian subgroup         C2V     NOp   4
 Largest concise Abelian subgroup C2      NOp   2
                         Standard orientation:                         
 ---------------------------------------------------------------------
 Center     Atomic      Atomic             Coordinates (Angstroms)
 Number     Number       Type             X           Y           Z
 ---------------------------------------------------------------------
      1         28           0        0.000000    0.000000   -1.157247
      2         28           0        0.000000    0.000000    1.161557
      3          6           0        0.000000    1.556987   -0.157315
      4          6           0        0.000000    0.000000   -2.907821
      5          6           0        0.000000   -1.556987   -0.157315
      6          8           0        0.000000    0.000000   -4.068684
      7          8           0        0.000000   -2.694620    0.109300
      8          8           0        0.000000    2.694620    0.109300
      9          6           0        0.000000    0.000000    2.909411
     10          8           0        0.000000    0.000000    4.069779
 ---------------------------------------------------------------------
 Rotational constants (GHZ):      1.7399358      0.5681730      0.4283093

 Test job not archived.
 1|1|UNPC-123-PC|FOpt|UB3LYP|6-311+G(d)|C4Ni2O4(1-,2)|123|18-Oct-2016|0
 ||# opt=(tight,cartesian) freq ub3lyp/6-311+g(d) int=ultrafine iop(1/8
 =10) scf=(maxcyc=80,xqc) symm=on||Title Card Required||-1,2|Ni,0.,0.,-
 1.157247|Ni,0.,0.,1.161557|C,0.,1.556987,-0.157315|C,0.,0.,-2.907821|C
 ,0.,-1.556987,-0.157315|O,0.,0.,-4.068684|O,0.,-2.69462,0.1093|O,0.,2.
 69462,0.1093|C,0.,0.,2.909411|O,0.,0.,4.069779||Version=IA32W-G09RevA.
 02|State=2-B1|HF=-3470.2305479|S2=0.767079|S2-1=0.|S2A=0.750233|RMSD=4
 .374e-009|RMSF=2.535e-006|Dipole=0.,0.,0.0437067|Quadrupole=11.5522344
 ,1.5078311,-13.0600655,0.,0.,0.|PG=C02V [C2(O1C1Ni1Ni1C1O1),SGV(C2O2)]
 ||@


 LIFE IS A CONTINUAL STRUGGLE AGAINST THE TENDENCY TO PRODUCE ENTROPY.
 Job cpu time:  0 days  0 hours 11 minutes 42.0 seconds.
 File lengths (MBytes):  RWF=     85 Int=      0 D2E=      0 Chk=      6 Scr=      1
 Normal termination of Gaussian 09 at Tue Oct 18 13:51:25 2016.
 Link1:  Proceeding to internal job step number  2.
 ----------------------------------------------------------------------
 #N Geom=AllCheck Guess=TCheck SCRF=Check Test GenChk UB3LYP/6-311+G(d)
  Freq
 ----------------------------------------------------------------------
 1/7=10,10=4,29=7,30=1,38=1,40=1/1,3;
 2/12=2,15=-1,40=1/2;
 3/5=4,6=6,7=11,11=2,14=-4,16=1,25=1,30=1,70=2,71=2,74=-5,75=-5,116=2/1,2,3;
 4/5=101/1;
 5/5=2,7=80,8=3,13=1,98=1/2,8;
 8/6=4,10=90,11=11/1;
 11/6=1,8=1,9=11,15=111,16=1,31=1/1,2,10;
 10/6=1,31=1/2;
 6/7=2,8=2,9=2,10=2,18=1,28=1/1;
 7/8=1,10=1,25=1,30=1/1,2,3,16;
 1/7=10,10=4,30=1/3;
 99//99;
 -------------------
 Title Card Required
 -------------------
 No Z-matrix found on checkpoint file.
 Cartesian coordinates read from the checkpoint file:
 D:\Gaussian Result\CrFeCO-\CrFeCO- OK_meng\Ni2CO4-_31_A1_2th_4_C2v_big_chk.chk
 Charge = -1 Multiplicity = 2
  Ni                                                0.000000000000      0.000000000000     -1.157247000000
  Ni                                                0.000000000000      0.000000000000      1.161557000000
  C                                                 0.000000000000      1.556987000000     -0.157315000000
  C                                                 0.000000000000      0.000000000000     -2.907821000000
  C                                                 0.000000000000     -1.556987000000     -0.157315000000
  O                                                 0.000000000000      0.000000000000     -4.068684000000
  O                                                 0.000000000000     -2.694620000000      0.109300000000
  O                                                 0.000000000000      2.694620000000      0.109300000000
  C                                                 0.000000000000      0.000000000000      2.909411000000
  O                                                 0.000000000000      0.000000000000      4.069779000000
 Recover connectivity data from disk.

 GradGradGradGradGradGradGradGradGradGradGradGradGradGradGradGradGradGrad
 Berny optimization.
 Initialization pass.
 Trust Radius=3.00D-01 FncErr=1.00D-07 GrdErr=1.00D-07
 Number of steps in this run=   2 maximum allowed number of steps=   2.
 GradGradGradGradGradGradGradGradGradGradGradGradGradGradGradGradGradGrad

                          Input orientation:                          
 ---------------------------------------------------------------------
 Center     Atomic      Atomic             Coordinates (Angstroms)
 Number     Number       Type             X           Y           Z
 ---------------------------------------------------------------------
      1         28           0        0.000000    0.000000   -1.157247
      2         28           0        0.000000    0.000000    1.161557
      3          6           0        0.000000    1.556987   -0.157315
      4          6           0        0.000000    0.000000   -2.907821
      5          6           0        0.000000   -1.556987   -0.157315
      6          8           0        0.000000    0.000000   -4.068684
      7          8           0        0.000000   -2.694620    0.109300
      8          8           0        0.000000    2.694620    0.109300
      9          6           0        0.000000    0.000000    2.909411
     10          8           0        0.000000    0.000000    4.069779
 ---------------------------------------------------------------------
                    Distance matrix (angstroms):
                    1          2          3          4          5
     1  Ni   0.000000
     2  Ni   2.318804   0.000000
     3  C    1.850425   2.040498   0.000000
     4  C    1.750574   4.069378   3.160616   0.000000
     5  C    1.850425   2.040498   3.113974   3.160616   0.000000
     6  O    2.911437   5.230241   4.209871   1.160863   4.209871
     7  O    2.977435   2.892788   4.259958   4.045244   1.168457
     8  O    2.977435   2.892788   1.168457   4.045244   4.259958
     9  C    4.066658   1.747854   3.439334   5.817232   3.439334
    10  O    5.227026   2.908222   4.504723   6.977600   4.504723
                    6          7          8          9         10
     6  O    0.000000
     7  O    4.971572   0.000000
     8  O    4.971572   5.389240   0.000000
     9  C    6.978095   3.886078   3.886078   0.000000
    10  O    8.138463   4.790237   4.790237   1.160368   0.000000
 Stoichiometry    C4Ni2O4(1-,2)
 Framework group  C2V[C2(OCNiNiCO),SGV(C2O2)]
 Deg. of freedom     9
 Full point group                 C2V     NOp   4
 Largest Abelian subgroup         C2V     NOp   4
 Largest concise Abelian subgroup C2      NOp   2
                         Standard orientation:                         
 ---------------------------------------------------------------------
 Center     Atomic      Atomic             Coordinates (Angstroms)
 Number     Number       Type             X           Y           Z
 ---------------------------------------------------------------------
      1         28           0        0.000000    0.000000   -1.157247
      2         28           0        0.000000    0.000000    1.161557
      3          6           0        0.000000    1.556987   -0.157315
      4          6           0        0.000000    0.000000   -2.907821
      5          6           0        0.000000   -1.556987   -0.157315
      6          8           0        0.000000    0.000000   -4.068684
      7          8           0        0.000000   -2.694620    0.109300
      8          8           0        0.000000    2.694620    0.109300
      9          6           0        0.000000    0.000000    2.909411
     10          8           0        0.000000    0.000000    4.069779
 ---------------------------------------------------------------------
 Rotational constants (GHZ):      1.7399358      0.5681730      0.4283093
 Standard basis: 6-311+G(d) (5D, 7F)
 There are   130 symmetry adapted basis functions of A1  symmetry.
 There are    26 symmetry adapted basis functions of A2  symmetry.
 There are    58 symmetry adapted basis functions of B1  symmetry.
 There are    78 symmetry adapted basis functions of B2  symmetry.
 Integral buffers will be    262144 words long.
 Raffenetti 2 integral format.
 Two-electron integral symmetry is turned on.
   292 basis functions,   476 primitive gaussians,   314 cartesian basis functions
    57 alpha electrons       56 beta electrons
       nuclear repulsion energy      1022.0512066930 Hartrees.
 NAtoms=   10 NActive=   10 NUniq=    8 SFac= 1.17D+00 NAtFMM=   80 NAOKFM=F Big=F
 One-electron integrals computed using PRISM.
 NBasis=   292 RedAO= T  NBF=   130    26    58    78
 NBsUse=   292 1.00D-06 NBFU=   130    26    58    78
 Initial guess read from the checkpoint file:  D:\Gaussian Result\CrFeCO-\CrFeCO-
  OK_meng\Ni2CO4-_31_A1_2th_4_C2v_big_chk.chk
 B after Tr=     0.000000    0.000000    0.000000
         Rot=    1.000000    0.000000    0.000000    0.000000 Ang=   0.00 deg.
 Initial guess orbital symmetries:
 Alpha Orbitals:
       Occupied  (A1) (A1) (A1) (A1) (A1) (B2) (B1) (A1) (B2) (B1)
                 (A1) (A1) (A1) (B2) (A1) (A1) (A1) (B2) (A1) (A1)
                 (A1) (B2) (A1) (B1) (B2) (B1) (A1) (A1) (A1) (B2)
                 (A1) (A1) (B2) (A1) (A1) (A1) (B2) (B1) (B1) (B2)
                 (B1) (B2) (A2) (A1) (B2) (A1) (B1) (A1) (A2) (B2)
                 (A1) (A1) (B1) (A2) (B2) (A1) (B1)
       Virtual   (B2) (B1) (A1) (A1) (A2) (B2) (B1) (A1) (B2) (A1)
                 (B2) (B1) (A1) (A1) (B2) (B1) (A1) (A1) (B2) (A2)
                 (B1) (A1) (A1) (B1) (B2) (B2) (B1) (A1) (A1) (B2)
                 (B2) (A1) (B1) (A1) (B1) (B2) (A2) (A1) (A1) (B1)
                 (A1) (B2) (A1) (B2) (A1) (B2) (A1) (B1) (A1) (B2)
                 (A2) (A1) (B1) (A1) (A1) (B2) (A2) (B2) (B1) (A1)
                 (A1) (B2) (A1) (B1) (A1) (B1) (A2) (B2) (A1) (B1)
                 (B2) (B2) (B1) (B2) (A1) (A1) (B2) (A1) (A1) (B2)
                 (A1) (A1) (A1) (B2) (A1) (A1) (A1) (A2) (B1) (B1)
                 (B1) (B2) (A1) (A1) (B2) (A1) (B2) (B2) (A1) (A2)
                 (A2) (A1) (B2) (B1) (A2) (B1) (A1) (A2) (B2) (B1)
                 (B1) (A1) (A1) (B2) (A1) (B2) (A1) (B2) (A2) (A1)
                 (A1) (A2) (B1) (B2) (B1) (A1) (B1) (B1) (A1) (A1)
                 (B2) (B2) (A1) (B2) (A1) (A1) (B2) (B1) (B1) (A2)
                 (B1) (B2) (A1) (B2) (A2) (A1) (A2) (A1) (B1) (A1)
                 (A2) (B2) (A1) (B2) (A1) (A1) (A1) (B2) (A1) (B1)
                 (A2) (B1) (B2) (B1) (B2) (A1) (B2) (A2) (B1) (B1)
                 (A2) (A1) (B2) (B2) (B1) (A1) (B1) (A1) (B2) (A1)
                 (B2) (A1) (B2) (A1) (A1) (A1) (A1) (A2) (B1) (B1)
                 (B1) (B2) (B2) (B2) (A1) (A1) (B2) (A1) (A1) (A2)
                 (B1) (A2) (A1) (A1) (B1) (A1) (B2) (B2) (A1) (B1)
                 (B1) (B2) (B2) (A1) (A1) (A1) (A1) (B2) (A1) (A1)
                 (A1) (B1) (B1) (B2) (B2) (A1) (A1) (B2) (A1) (A1)
                 (A1) (A1) (A1) (A1) (A1)
 Beta  Orbitals:
       Occupied  (A1) (A1) (A1) (A1) (A1) (B2) (B1) (A1) (B2) (B1)
                 (A1) (A1) (A1) (B2) (A1) (A1) (B2) (A1) (A1) (A1)
                 (A1) (B2) (A1) (B1) (B2) (B1) (A1) (A1) (A1) (B2)
                 (A1) (A1) (B2) (A1) (A1) (B2) (A1) (B2) (B1) (B2)
                 (B1) (A1) (B2) (B1) (A2) (A1) (B1) (A1) (A2) (B2)
                 (A1) (B1) (A1) (A2) (B2) (A1)
       Virtual   (B1) (B2) (A1) (A1) (B1) (B2) (A1) (A2) (B1) (B2)
                 (A1) (B2) (B1) (A1) (B2) (A1) (B1) (A1) (A1) (B2)
                 (A2) (B1) (A1) (A1) (B1) (B2) (B2) (B1) (A1) (A1)
                 (B2) (B2) (A1) (B1) (A1) (B1) (B2) (A2) (A1) (A1)
                 (B1) (A1) (B2) (A1) (B2) (A1) (B2) (A1) (B1) (A1)
                 (B2) (A1) (A2) (B1) (A1) (A1) (B2) (A2) (B2) (A1)
                 (B1) (A1) (B2) (A1) (A1) (B1) (B1) (B2) (A2) (A1)
                 (B1) (B2) (B2) (B1) (A1) (B2) (A1) (B2) (A1) (A1)
                 (B2) (A1) (A1) (A1) (B2) (A1) (A1) (A1) (B1) (A2)
                 (B1) (B1) (B2) (A1) (A1) (B2) (A1) (B2) (B2) (A1)
                 (A2) (A2) (A1) (B2) (B1) (A2) (B1) (A1) (A2) (B2)
                 (B1) (B1) (A1) (A1) (B2) (A1) (B2) (A1) (B2) (A2)
                 (A1) (A1) (A2) (B1) (B2) (B1) (A1) (B1) (B1) (A1)
                 (A1) (B2) (B2) (A1) (B2) (A1) (A1) (B2) (B1) (B1)
                 (A2) (B1) (B2) (A1) (B2) (A2) (A1) (A2) (A1) (A1)
                 (B1) (A2) (B2) (A1) (B2) (A1) (A1) (A1) (B2) (A1)
                 (B1) (A2) (B1) (B2) (B1) (B2) (A1) (B2) (A2) (B1)
                 (B1) (A2) (A1) (B2) (B2) (B1) (A1) (B1) (A1) (B2)
                 (A1) (B2) (A1) (B2) (A1) (A1) (A1) (A1) (B1) (A2)
                 (B1) (B1) (B2) (B2) (B2) (A1) (A1) (B2) (A1) (A1)
                 (A2) (B1) (A2) (A1) (A1) (B1) (A1) (B2) (B2) (A1)
                 (B1) (B1) (B2) (B2) (A1) (A1) (A1) (A1) (B2) (A1)
                 (A1) (A1) (B1) (B1) (B2) (B2) (A1) (A1) (B2) (A1)
                 (A1) (A1) (A1) (A1) (A1) (A1)
 Initial guess <Sx>= 0.0000 <Sy>= 0.0000 <Sz>= 0.5000 <S**2>= 0.7671 S= 0.5085
 Requested convergence on RMS density matrix=1.00D-08 within  80 cycles.
 Requested convergence on MAX density matrix=1.00D-06.
 Requested convergence on             energy=1.00D-06.
 No special actions if energy rises.
 SCF Done:  E(UB3LYP) =  -3470.23054788     A.U. after    1 cycles
             Convg  =    0.1728D-08             -V/T =  2.0011
 <Sx>= 0.0000 <Sy>= 0.0000 <Sz>= 0.5000 <S**2>= 0.7671 S= 0.5085
 <L.S>= 0.000000000000E+00
 Annihilation of the first spin contaminant:
 S**2 before annihilation     0.7671,   after     0.7502
 QCSCF skips out because SCF is already converged.
 Range of M.O.s used for correlation:     1   292
 NBasis=   292 NAE=    57 NBE=    56 NFC=     0 NFV=     0
 NROrb=    292 NOA=    57 NOB=    56 NVA=   235 NVB=   236

 **** Warning!!: The largest alpha MO coefficient is  0.67486611D+02


 **** Warning!!: The smallest alpha delta epsilon is  0.65184934D-01


 **** Warning!!: The largest beta MO coefficient is  0.67406497D+02

 Symmetrizing basis deriv contribution to polar:
 IMax=3 JMax=2 DiffMx= 0.00D+00
 G2DrvN: will do    11 centers at a time, making    1 passes doing MaxLOS=3.
 Calling FoFCou, ICntrl=  3107 FMM=F I1Cent=   0 AccDes= 0.00D+00.
 FoFDir/FoFCou used for L=0 through L=3.
 End of G2Drv Frequency-dependent properties file   721 does not exist.
 End of G2Drv Frequency-dependent properties file   722 does not exist.
          IDoAtm=1111111111
          Differentiating once with respect to electric field.
                with respect to dipole field.
          Differentiating once with respect to nuclear coordinates.
          There are    33 degrees of freedom in the 1st order CPHF.  IDoFFX=5.
     30 vectors produced by pass  0 Test12= 8.06D-14 3.03D-09 XBig12= 1.45D+03 2.77D+01.
 AX will form    30 AO Fock derivatives at one time.
     30 vectors produced by pass  1 Test12= 8.06D-14 3.03D-09 XBig12= 3.03D+02 4.22D+00.
     30 vectors produced by pass  2 Test12= 8.06D-14 3.03D-09 XBig12= 8.38D+00 5.71D-01.
     30 vectors produced by pass  3 Test12= 8.06D-14 3.03D-09 XBig12= 5.47D-01 1.62D-01.
     30 vectors produced by pass  4 Test12= 8.06D-14 3.03D-09 XBig12= 2.54D-02 3.83D-02.
     30 vectors produced by pass  5 Test12= 8.06D-14 3.03D-09 XBig12= 1.07D-03 9.16D-03.
     30 vectors produced by pass  6 Test12= 8.06D-14 3.03D-09 XBig12= 2.81D-05 9.52D-04.
     30 vectors produced by pass  7 Test12= 8.06D-14 3.03D-09 XBig12= 2.18D-07 1.38D-04.
     26 vectors produced by pass  8 Test12= 8.06D-14 3.03D-09 XBig12= 2.54D-09 1.05D-05.
     14 vectors produced by pass  9 Test12= 8.06D-14 3.03D-09 XBig12= 2.08D-11 8.00D-07.
      9 vectors produced by pass 10 Test12= 8.06D-14 3.03D-09 XBig12= 2.07D-13 6.09D-08.
      1 vectors produced by pass 11 Test12= 8.06D-14 3.03D-09 XBig12= 2.12D-15 6.62D-09.
 Inverted reduced A of dimension   290 with in-core refinement.
 Isotropic polarizability for W=    0.000000      157.23 Bohr**3.
 End of Minotr Frequency-dependent properties file   721 does not exist.
 End of Minotr Frequency-dependent properties file   722 does not exist.

 **********************************************************************

            Population analysis using the SCF density.

 **********************************************************************

 Orbital symmetries:
 Alpha Orbitals:
       Occupied  (A1) (A1) (A1) (A1) (A1) (B2) (B1) (A1) (B2) (B1)
                 (A1) (A1) (A1) (B2) (A1) (A1) (A1) (B2) (A1) (A1)
                 (A1) (B2) (A1) (B1) (B2) (B1) (A1) (A1) (A1) (B2)
                 (A1) (A1) (B2) (A1) (A1) (A1) (B2) (B1) (B1) (B2)
                 (B1) (B2) (A2) (A1) (B2) (A1) (B1) (A1) (A2) (B2)
                 (A1) (A1) (B1) (A2) (B2) (A1) (B1)
       Virtual   (B2) (B1) (A1) (A1) (A2) (B2) (B1) (A1) (B2) (A1)
                 (B2) (B1) (A1) (A1) (B2) (B1) (A1) (A1) (B2) (A2)
                 (B1) (A1) (A1) (B1) (B2) (B2) (B1) (A1) (A1) (B2)
                 (B2) (A1) (B1) (A1) (B1) (B2) (A2) (A1) (A1) (B1)
                 (A1) (B2) (A1) (B2) (A1) (B2) (A1) (B1) (A1) (B2)
                 (A2) (A1) (B1) (A1) (A1) (B2) (A2) (B2) (B1) (A1)
                 (A1) (B2) (A1) (B1) (A1) (B1) (A2) (B2) (A1) (B1)
                 (B2) (B2) (B1) (B2) (A1) (A1) (B2) (A1) (A1) (B2)
                 (A1) (A1) (A1) (B2) (A1) (A1) (A1) (A2) (B1) (B1)
                 (B1) (B2) (A1) (A1) (B2) (A1) (B2) (B2) (A1) (A2)
                 (A2) (A1) (B2) (B1) (A2) (B1) (A1) (A2) (B2) (B1)
                 (B1) (A1) (A1) (B2) (A1) (B2) (A1) (B2) (A2) (A1)
                 (A1) (A2) (B1) (B2) (B1) (A1) (B1) (B1) (A1) (A1)
                 (B2) (B2) (A1) (B2) (A1) (A1) (B2) (B1) (B1) (A2)
                 (B1) (B2) (A1) (B2) (A2) (A1) (A2) (A1) (B1) (A1)
                 (A2) (B2) (A1) (B2) (A1) (A1) (A1) (B2) (A1) (B1)
                 (A2) (B1) (B2) (B1) (B2) (A1) (B2) (A2) (B1) (B1)
                 (A2) (A1) (B2) (B2) (B1) (A1) (B1) (A1) (B2) (A1)
                 (B2) (A1) (B2) (A1) (A1) (A1) (A1) (A2) (B1) (B1)
                 (B1) (B2) (B2) (B2) (A1) (A1) (B2) (A1) (A1) (A2)
                 (B1) (A2) (A1) (A1) (B1) (A1) (B2) (B2) (A1) (B1)
                 (B1) (B2) (B2) (A1) (A1) (A1) (A1) (B2) (A1) (A1)
                 (A1) (B1) (B1) (B2) (B2) (A1) (A1) (B2) (A1) (A1)
                 (A1) (A1) (A1) (A1) (A1)
 Beta  Orbitals:
       Occupied  (A1) (A1) (A1) (A1) (A1) (B2) (B1) (A1) (B2) (B1)
                 (A1) (A1) (A1) (B2) (A1) (A1) (B2) (A1) (A1) (A1)
                 (A1) (B2) (A1) (B1) (B2) (B1) (A1) (A1) (A1) (B2)
                 (A1) (A1) (B2) (A1) (A1) (B2) (A1) (B2) (B1) (B2)
                 (B1) (A1) (B2) (B1) (A2) (A1) (B1) (A1) (A2) (B2)
                 (A1) (B1) (A1) (A2) (B2) (A1)
       Virtual   (B1) (B2) (A1) (A1) (B1) (B2) (A1) (A2) (B1) (B2)
                 (A1) (B2) (B1) (A1) (B2) (A1) (B1) (A1) (A1) (B2)
                 (A2) (B1) (A1) (A1) (B1) (B2) (B2) (B1) (A1) (A1)
                 (B2) (B2) (A1) (B1) (A1) (B1) (B2) (A2) (A1) (A1)
                 (B1) (A1) (B2) (A1) (B2) (A1) (B2) (A1) (B1) (A1)
                 (B2) (A1) (A2) (B1) (A1) (A1) (B2) (A2) (B2) (A1)
                 (B1) (A1) (B2) (A1) (A1) (B1) (B1) (B2) (A2) (A1)
                 (B1) (B2) (B2) (B1) (A1) (B2) (A1) (B2) (A1) (A1)
                 (B2) (A1) (A1) (A1) (B2) (A1) (A1) (A1) (B1) (A2)
                 (B1) (B1) (B2) (A1) (A1) (B2) (A1) (B2) (B2) (A1)
                 (A2) (A2) (A1) (B2) (B1) (A2) (B1) (A1) (A2) (B2)
                 (B1) (B1) (A1) (A1) (B2) (A1) (B2) (A1) (B2) (A2)
                 (A1) (A1) (A2) (B1) (B2) (B1) (A1) (B1) (B1) (A1)
                 (A1) (B2) (B2) (A1) (B2) (A1) (A1) (B2) (B1) (B1)
                 (A2) (B1) (B2) (A1) (B2) (A2) (A1) (A2) (A1) (A1)
                 (B1) (A2) (B2) (A1) (B2) (A1) (A1) (A1) (B2) (A1)
                 (B1) (A2) (B1) (B2) (B1) (B2) (A1) (B2) (A2) (B1)
                 (B1) (A2) (A1) (B2) (B2) (B1) (A1) (B1) (A1) (B2)
                 (A1) (B2) (A1) (B2) (A1) (A1) (A1) (A1) (B1) (A2)
                 (B1) (B1) (B2) (B2) (B2) (A1) (A1) (B2) (A1) (A1)
                 (A2) (B1) (A2) (A1) (A1) (B1) (A1) (B2) (B2) (A1)
                 (B1) (B1) (B2) (B2) (A1) (A1) (A1) (A1) (B2) (A1)
                 (A1) (A1) (B1) (B1) (B2) (B2) (A1) (A1) (B2) (A1)
                 (A1) (A1) (A1) (A1) (A1) (A1)
 The electronic state is 2-B1.
 Alpha  occ. eigenvalues -- -299.66655-299.64122 -35.59457 -35.56133 -31.04317
 Alpha  occ. eigenvalues --  -31.04195 -31.02982 -31.01230 -31.00505 -31.00030
 Alpha  occ. eigenvalues --  -19.05978 -19.05469 -19.04599 -19.04599 -10.13724
 Alpha  occ. eigenvalues --  -10.13561 -10.13499 -10.13499  -3.85437  -3.82541
 Alpha  occ. eigenvalues --   -2.45726  -2.45052  -2.43152  -2.42647  -2.41454
 Alpha  occ. eigenvalues --   -2.40337  -0.99105  -0.98702  -0.97527  -0.97513
 Alpha  occ. eigenvalues --   -0.44771  -0.43181  -0.42679  -0.42544  -0.34818
 Alpha  occ. eigenvalues --   -0.31973  -0.31922  -0.31872  -0.31592  -0.31521
 Alpha  occ. eigenvalues --   -0.30899  -0.30852  -0.30822  -0.30508  -0.30308
 Alpha  occ. eigenvalues --   -0.29517  -0.13687  -0.12621  -0.12303  -0.11450
 Alpha  occ. eigenvalues --   -0.11124  -0.09534  -0.09524  -0.09077  -0.09010
 Alpha  occ. eigenvalues --   -0.08171  -0.01070
 Alpha virt. eigenvalues --    0.05449   0.09238   0.09352   0.09613   0.11688
 Alpha virt. eigenvalues --    0.12602   0.12605   0.12816   0.14235   0.14474
 Alpha virt. eigenvalues --    0.14847   0.15982   0.16559   0.16921   0.16923
 Alpha virt. eigenvalues --    0.17845   0.18547   0.18993   0.19173   0.20017
 Alpha virt. eigenvalues --    0.21810   0.22998   0.23856   0.24589   0.25246
 Alpha virt. eigenvalues --    0.26087   0.26118   0.28486   0.29786   0.30990
 Alpha virt. eigenvalues --    0.33042   0.33450   0.36070   0.37041   0.37199
 Alpha virt. eigenvalues --    0.37564   0.38258   0.38958   0.39147   0.39581
 Alpha virt. eigenvalues --    0.39857   0.40755   0.41458   0.41582   0.42821
 Alpha virt. eigenvalues --    0.43021   0.43663   0.43820   0.44968   0.45604
 Alpha virt. eigenvalues --    0.46104   0.46168   0.46320   0.50890   0.51724
 Alpha virt. eigenvalues --    0.53362   0.56262   0.58167   0.58523   0.58752
 Alpha virt. eigenvalues --    0.60610   0.65905   0.69491   0.70865   0.71024
 Alpha virt. eigenvalues --    0.73196   0.75432   0.75838   0.76322   0.78055
 Alpha virt. eigenvalues --    0.78958   0.80957   0.84330   0.87133   0.87363
 Alpha virt. eigenvalues --    0.88585   0.91085   0.93558   0.95892   0.97944
 Alpha virt. eigenvalues --    0.98028   1.01048   1.03677   1.11463   1.11642
 Alpha virt. eigenvalues --    1.14883   1.21145   1.21917   1.22103   1.24184
 Alpha virt. eigenvalues --    1.25381   1.26236   1.26769   1.27964   1.28634
 Alpha virt. eigenvalues --    1.29551   1.30362   1.32022   1.32385   1.39317
 Alpha virt. eigenvalues --    1.42018   1.44605   1.48111   1.48670   1.49938
 Alpha virt. eigenvalues --    1.51458   1.52247   1.53223   1.53792   1.58118
 Alpha virt. eigenvalues --    1.60983   1.64118   1.67469   1.67596   1.73552
 Alpha virt. eigenvalues --    1.75590   1.78231   1.79844   1.80069   1.88138
 Alpha virt. eigenvalues --    1.90809   1.92880   1.93003   1.94554   2.00854
 Alpha virt. eigenvalues --    2.01148   2.02436   2.06153   2.06319   2.13050
 Alpha virt. eigenvalues --    2.18786   2.21936   2.22326   2.31785   2.32059
 Alpha virt. eigenvalues --    2.50538   2.67173   2.79455   2.81308   2.81900
 Alpha virt. eigenvalues --    2.82519   2.83448   2.84986   2.91173   2.93079
 Alpha virt. eigenvalues --    2.93276   2.93512   2.93848   2.94484   2.94528
 Alpha virt. eigenvalues --    2.94599   2.96134   2.97715   3.04683   3.06793
 Alpha virt. eigenvalues --    3.26416   3.31472   3.34787   3.41825   3.46941
 Alpha virt. eigenvalues --    3.47684   3.48427   3.49617   3.49824   3.52419
 Alpha virt. eigenvalues --    3.53756   3.54849   3.73914   3.74600   3.79056
 Alpha virt. eigenvalues --    3.80241   3.81132   3.81887   3.85169   3.85583
 Alpha virt. eigenvalues --    3.85722   3.86748   3.94583   3.95608   3.97499
 Alpha virt. eigenvalues --    3.98086   4.07260   4.09819   4.14323   4.23484
 Alpha virt. eigenvalues --    4.51560   4.66090   5.12987   5.13139   5.14666
 Alpha virt. eigenvalues --    5.16497   5.17177   5.19003   5.22692   5.24437
 Alpha virt. eigenvalues --    5.74608   5.74745   5.77442   5.78711   6.92044
 Alpha virt. eigenvalues --    6.95871   6.97203   7.03309   7.05634   7.08928
 Alpha virt. eigenvalues --    7.17113   7.22896   7.25706   7.57972   8.91476
 Alpha virt. eigenvalues --    8.92555   9.12207   9.26410   9.38553   9.44124
 Alpha virt. eigenvalues --   24.02263  24.02787  24.04773  24.07025  30.16450
 Alpha virt. eigenvalues --   30.50277  36.44193  36.46172  36.61352  36.69893
 Alpha virt. eigenvalues --   36.80963  36.83290  50.11647  50.13881  50.15978
 Alpha virt. eigenvalues --   50.16405 162.54086 162.82388 845.24776 845.53850
  Beta  occ. eigenvalues -- -299.66630-299.64105 -35.59771 -35.56398 -31.04577
  Beta  occ. eigenvalues --  -31.04422 -31.03217 -31.01480 -31.00654 -31.00249
  Beta  occ. eigenvalues --  -19.05813 -19.05261 -19.04301 -19.04301 -10.13614
  Beta  occ. eigenvalues --  -10.13439 -10.13355 -10.13355  -3.86055  -3.83073
  Beta  occ. eigenvalues --   -2.46413  -2.45650  -2.43822  -2.43293  -2.41848
  Beta  occ. eigenvalues --   -2.40943  -0.98819  -0.98343  -0.97017  -0.97003
  Beta  occ. eigenvalues --   -0.44035  -0.42730  -0.42015  -0.42013  -0.34420
  Beta  occ. eigenvalues --   -0.31677  -0.31625  -0.31333  -0.30960  -0.30564
  Beta  occ. eigenvalues --   -0.30475  -0.30196  -0.29991  -0.29356  -0.29332
  Beta  occ. eigenvalues --   -0.29086  -0.14161  -0.12828  -0.12600  -0.11816
  Beta  occ. eigenvalues --   -0.11151  -0.10107  -0.09730  -0.09503  -0.09063
  Beta  occ. eigenvalues --   -0.08229
  Beta virt. eigenvalues --    0.04207   0.05803   0.09386   0.09615   0.10408
  Beta virt. eigenvalues --    0.12719   0.12918   0.13743   0.14098   0.14267
  Beta virt. eigenvalues --    0.14484   0.14894   0.16221   0.16641   0.16922
  Beta virt. eigenvalues --    0.16956   0.17976   0.18699   0.18988   0.19132
  Beta virt. eigenvalues --    0.20075   0.21964   0.23033   0.23936   0.25054
  Beta virt. eigenvalues --    0.25165   0.26304   0.26785   0.28973   0.30012
  Beta virt. eigenvalues --    0.31032   0.33150   0.33659   0.36382   0.37173
  Beta virt. eigenvalues --    0.37476   0.37593   0.38448   0.39010   0.39292
  Beta virt. eigenvalues --    0.39829   0.39937   0.40775   0.41489   0.41616
  Beta virt. eigenvalues --    0.42937   0.43019   0.43809   0.44425   0.45152
  Beta virt. eigenvalues --    0.45588   0.46352   0.46663   0.46921   0.51029
  Beta virt. eigenvalues --    0.52008   0.53505   0.57068   0.58450   0.59121
  Beta virt. eigenvalues --    0.59417   0.61029   0.66167   0.69731   0.71380
  Beta virt. eigenvalues --    0.71584   0.73735   0.75993   0.76091   0.76556
  Beta virt. eigenvalues --    0.78683   0.79141   0.81071   0.84906   0.87678
  Beta virt. eigenvalues --    0.87812   0.88813   0.91346   0.93761   0.96080
  Beta virt. eigenvalues --    0.98240   0.98368   1.01485   1.03965   1.11885
  Beta virt. eigenvalues --    1.11926   1.15629   1.21555   1.22531   1.22618
  Beta virt. eigenvalues --    1.24733   1.25849   1.26346   1.26940   1.28115
  Beta virt. eigenvalues --    1.28754   1.29713   1.30519   1.32195   1.32570
  Beta virt. eigenvalues --    1.39985   1.42663   1.45187   1.48304   1.49388
  Beta virt. eigenvalues --    1.50586   1.52127   1.52604   1.53888   1.53920
  Beta virt. eigenvalues --    1.58972   1.61573   1.64475   1.67737   1.67802
  Beta virt. eigenvalues --    1.73924   1.76021   1.78405   1.79956   1.80211
  Beta virt. eigenvalues --    1.88355   1.90972   1.93198   1.93235   1.94769
  Beta virt. eigenvalues --    2.00941   2.01350   2.02670   2.06404   2.06527
  Beta virt. eigenvalues --    2.13297   2.18898   2.22044   2.22550   2.31937
  Beta virt. eigenvalues --    2.32100   2.50899   2.67431   2.80276   2.81984
  Beta virt. eigenvalues --    2.82821   2.83326   2.83581   2.85242   2.91366
  Beta virt. eigenvalues --    2.93586   2.93781   2.94155   2.94379   2.94816
  Beta virt. eigenvalues --    2.95381   2.95484   2.96960   2.98485   3.04876
  Beta virt. eigenvalues --    3.07037   3.26650   3.31618   3.34949   3.41924
  Beta virt. eigenvalues --    3.47433   3.48414   3.48899   3.49699   3.50510
  Beta virt. eigenvalues --    3.52533   3.53902   3.54977   3.73611   3.74469
  Beta virt. eigenvalues --    3.78938   3.80058   3.81197   3.81762   3.85136
  Beta virt. eigenvalues --    3.85465   3.85785   3.86567   3.94840   3.95603
  Beta virt. eigenvalues --    3.97603   3.98226   4.07217   4.09747   4.14229
  Beta virt. eigenvalues --    4.23362   4.51481   4.66002   5.13892   5.14156
  Beta virt. eigenvalues --    5.15791   5.17263   5.17337   5.19202   5.22968
  Beta virt. eigenvalues --    5.24715   5.74843   5.75023   5.77637   5.78905
  Beta virt. eigenvalues --    6.91720   6.95329   6.96831   7.03071   7.05422
  Beta virt. eigenvalues --    7.08384   7.16838   7.22615   7.25413   7.57714
  Beta virt. eigenvalues --    8.91186   8.92260   9.12001   9.26110   9.38211
  Beta virt. eigenvalues --    9.43798  24.02408  24.02936  24.04939  24.07161
  Beta virt. eigenvalues --   30.16081  30.49916  36.43874  36.45873  36.61146
  Beta virt. eigenvalues --   36.69590  36.80624  36.82953  50.11943  50.14094
  Beta virt. eigenvalues --   50.16171  50.16667 162.53947 162.82251 845.24759
  Beta virt. eigenvalues --  845.53833
          Condensed to atoms (all electrons):
              1          2          3          4          5          6
     1  Ni  29.036066  -0.472170   0.158797  -0.811403   0.158797   0.138062
     2  Ni  -0.472170  29.688545   0.275018  -1.106486   0.275018   0.042147
     3  C    0.158797   0.275018   6.421698  -0.361531   0.342644   0.010141
     4  C   -0.811403  -1.106486  -0.361531   9.471094  -0.361531  -0.234777
     5  C    0.158797   0.275018   0.342644  -0.361531   6.421698   0.010141
     6  O    0.138062   0.042147   0.010141  -0.234777   0.010141   8.174730
     7  O    0.013924  -0.064360  -0.035828   0.019043   0.144097   0.001090
     8  O    0.013924  -0.064360   0.144097   0.019043  -0.035828   0.001090
     9  C   -1.041459  -1.361381  -0.570748  -0.142193  -0.570748   0.000714
    10  O    0.040812   0.187729   0.019934   0.001257   0.019934   0.000005
              7          8          9         10
     1  Ni   0.013924   0.013924  -1.041459   0.040812
     2  Ni  -0.064360  -0.064360  -1.361381   0.187729
     3  C   -0.035828   0.144097  -0.570748   0.019934
     4  C    0.019043   0.019043  -0.142193   0.001257
     5  C    0.144097  -0.035828  -0.570748   0.019934
     6  O    0.001090   0.001090   0.000714   0.000005
     7  O    8.053176   0.001677   0.038969   0.000119
     8  O    0.001677   8.053176   0.038969   0.000119
     9  C    0.038969   0.038969  10.313396  -0.276622
    10  O    0.000119   0.000119  -0.276622   8.154650
 Mulliken atomic charges:
              1
     1  Ni   0.764650
[...]
 Frequencies --   536.0945               542.9551              1884.3593
 Red. masses --    13.9064                21.4878                13.3769
 Frc consts  --     2.3548                 3.7322                27.9854
 IR Inten    --    25.2384                 0.1235              1981.9706
  Atom  AN      X      Y      Z        X      Y      Z        X      Y      Z
     1  28     0.00  -0.18   0.00     0.00   0.00   0.36     0.00  -0.01   0.00
     2  28     0.00  -0.01   0.00     0.00   0.00  -0.19     0.00   0.00   0.00
     3   6     0.00   0.14  -0.25     0.00  -0.12   0.03     0.00   0.56   0.14
     4   6     0.00   0.84   0.00     0.00   0.00  -0.53     0.00   0.00   0.00
     5   6     0.00   0.14   0.25     0.00   0.12   0.03     0.00   0.56  -0.14
     6   8     0.00  -0.26   0.00     0.00   0.00  -0.60     0.00   0.00   0.00
     7   8     0.00   0.05  -0.11     0.00   0.11  -0.06     0.00  -0.40   0.09
     8   8     0.00   0.05   0.11     0.00  -0.11  -0.06     0.00  -0.40  -0.09
     9   6     0.00   0.07   0.00     0.00   0.00   0.24     0.00   0.00   0.00
    10   8     0.00  -0.02   0.00     0.00   0.00   0.27     0.00   0.00   0.00
                    22                     23                     24
                    A1                     A1                     A1
 Frequencies --  1898.5126              1973.0933              2020.5766
 Red. masses --    13.3430                13.2961                13.2861
 Frc consts  --    28.3355                30.4978                31.9595
 IR Inten    --    44.1577              3971.8682                31.6011
  Atom  AN      X      Y      Z        X      Y      Z        X      Y      Z
     1  28     0.00   0.00  -0.01     0.00   0.00  -0.01     0.00   0.00   0.00
     2  28     0.00   0.00   0.00     0.00   0.00  -0.01     0.00   0.00  -0.01
     3   6     0.00   0.51   0.12     0.00   0.03   0.00     0.00   0.23   0.05
     4   6     0.00   0.00   0.17     0.00   0.00   0.64     0.00   0.00  -0.48
     5   6     0.00  -0.51   0.12     0.00  -0.03   0.00     0.00  -0.23   0.05
     6   8     0.00   0.00  -0.12     0.00   0.00  -0.44     0.00   0.00   0.33
     7   8     0.00   0.37  -0.08     0.00   0.02   0.00     0.00   0.16  -0.04
     8   8     0.00  -0.37  -0.08     0.00  -0.02   0.00     0.00  -0.16  -0.04
     9   6     0.00   0.00  -0.28     0.00   0.00   0.51     0.00   0.00   0.58
    10   8     0.00   0.00   0.20     0.00   0.00  -0.35     0.00   0.00  -0.40

 -------------------
 - Thermochemistry -
 -------------------
 Temperature   298.150 Kelvin.  Pressure   1.00000 Atm.
 Atom     1 has atomic number 28 and mass  57.93535
 Atom     2 has atomic number 28 and mass  57.93535
 Atom     3 has atomic number  6 and mass  12.00000
 Atom     4 has atomic number  6 and mass  12.00000
 Atom     5 has atomic number  6 and mass  12.00000
 Atom     6 has atomic number  8 and mass  15.99491
 Atom     7 has atomic number  8 and mass  15.99491
 Atom     8 has atomic number  8 and mass  15.99491
 Atom     9 has atomic number  6 and mass  12.00000
 Atom    10 has atomic number  8 and mass  15.99491
 Molecular mass:   227.85035 amu.
 Principal axes and moments of inertia in atomic units:
                           1         2         3
     Eigenvalues --  1037.245853176.394094213.63994
           X            0.00000   0.00000   1.00000
           Y            0.00000   1.00000   0.00000
           Z            1.00000   0.00000   0.00000
 This molecule is an asymmetric top.
 Rotational symmetry number  2.
 Warning -- assumption of classical behavior for rotation
           may cause significant error
 Rotational temperatures (Kelvin)      0.08350     0.02727     0.02056
 Rotational constants (GHZ):           1.73994     0.56817     0.42831
 Zero-point vibrational energy      79928.9 (Joules/Mol)
                                   19.10347 (Kcal/Mol)
 Warning -- explicit consideration of  20 degrees of freedom as
           vibrations may cause significant error
 Vibrational temperatures:     25.83    51.00    75.02    92.73   119.12
          (Kelvin)            205.24   247.90   318.89   337.69   375.04
                              479.92   508.45   531.73   566.09   586.34
                              611.88   615.66   736.69   771.32   781.19
                             2711.17  2731.53  2838.84  2907.16
 
 Zero-point correction=                           0.030443 (Hartree/Particle)
 Thermal correction to Energy=                    0.043094
 Thermal correction to Enthalpy=                  0.044038
 Thermal correction to Gibbs Free Energy=        -0.011995
 Sum of electronic and zero-point Energies=          -3470.200105
 Sum of electronic and thermal Energies=             -3470.187454
 Sum of electronic and thermal Enthalpies=           -3470.186510
 Sum of electronic and thermal Free Energies=        -3470.242543
 
                     E (Thermal)             CV                S
                      KCal/Mol        Cal/Mol-Kelvin    Cal/Mol-Kelvin
 Total                   27.042             39.050            117.931
 Electronic               0.000              0.000              1.377
 Translational            0.889              2.981             42.173
 Rotational               0.889              2.981             29.630
 Vibrational             25.264             33.088             44.751
 Vibration     1          0.593              1.986              6.848
 Vibration     2          0.594              1.982              5.499
 Vibration     3          0.596              1.977              4.734
 Vibration     4          0.597              1.971              4.316
 Vibration     5          0.600              1.961              3.824
 Vibration     6          0.616              1.911              2.768
 Vibration     7          0.626              1.877              2.410
 Vibration     8          0.648              1.808              1.946
 Vibration     9          0.655              1.788              1.843
 Vibration    10          0.669              1.745              1.657
 Vibration    11          0.715              1.608              1.243
 Vibration    12          0.730              1.568              1.151
 Vibration    13          0.742              1.535              1.082
 Vibration    14          0.761              1.484              0.987
 Vibration    15          0.772              1.454              0.935
 Vibration    16          0.787              1.415              0.874
 Vibration    17          0.789              1.410              0.866
 Vibration    18          0.867              1.223              0.629
 Vibration    19          0.891              1.170              0.574
 Vibration    20          0.898              1.155              0.559
                       Q            Log10(Q)             Ln(Q)
 Total Bot       0.329067D+06          5.517284         12.704016
 Total V=0       0.331287D+20         19.520205         44.946932
 Vib (Bot)       0.182503D-08         -8.738729        -20.121667
 Vib (Bot)    1  0.115370D+02          1.062092          2.445558
 Vib (Bot)    2  0.583903D+01          0.766341          1.764565
 Vib (Bot)    3  0.396360D+01          0.598089          1.377152
 Vib (Bot)    4  0.320217D+01          0.505444          1.163828
 Vib (Bot)    5  0.248637D+01          0.395566          0.910825
 Vib (Bot)    6  0.142440D+01          0.153632          0.353750
 Vib (Bot)    7  0.116873D+01          0.067716          0.155921
 Vib (Bot)    8  0.891845D+00         -0.049711         -0.114463
 Vib (Bot)    9  0.837426D+00         -0.077053         -0.177422
 Vib (Bot)   10  0.744886D+00         -0.127910         -0.294524
 Vib (Bot)   11  0.558917D+00         -0.252653         -0.581754
 Vib (Bot)   12  0.520932D+00         -0.283219         -0.652135
 Vib (Bot)   13  0.492762D+00         -0.307362         -0.707728
 Vib (Bot)   14  0.455165D+00         -0.341831         -0.787096
 Vib (Bot)   15  0.434935D+00         -0.361575         -0.832558
 Vib (Bot)   16  0.411212D+00         -0.385935         -0.888647
 Vib (Bot)   17  0.407856D+00         -0.389493         -0.896841
 Vib (Bot)   18  0.317542D+00         -0.498199         -1.147145
 Vib (Bot)   19  0.296626D+00         -0.527791         -1.215284
 Vib (Bot)   20  0.290985D+00         -0.536129         -1.234483
 Vib (V=0)       0.183735D+06          5.264192         12.121250
 Vib (V=0)    1  0.120478D+02          1.080908          2.488883
 Vib (V=0)    2  0.636040D+01          0.803485          1.850091
 Vib (V=0)    3  0.449501D+01          0.652731          1.502968
 Vib (V=0)    4  0.374097D+01          0.572984          1.319344
 Vib (V=0)    5  0.303615D+01          0.482323          1.110590
 Vib (V=0)    6  0.200961D+01          0.303111          0.697939
 Vib (V=0)    7  0.177120D+01          0.248267          0.571655
 Vib (V=0)    8  0.152244D+01          0.182541          0.420315
 Vib (V=0)    9  0.147534D+01          0.168891          0.388887
 Vib (V=0)   10  0.139714D+01          0.145239          0.334425
 Vib (V=0)   11  0.124993D+01          0.096884          0.223084
 Vib (V=0)   12  0.122206D+01          0.087092          0.200538
 Vib (V=0)   13  0.120201D+01          0.079907          0.183993
 Vib (V=0)   14  0.117615D+01          0.070462          0.162244
 Vib (V=0)   15  0.116270D+01          0.065467          0.150743
 Vib (V=0)   16  0.114738D+01          0.059706          0.137477
 Vib (V=0)   17  0.114525D+01          0.058900          0.135622
 Vib (V=0)   18  0.109231D+01          0.038347          0.088296
 Vib (V=0)   19  0.108137D+01          0.033973          0.078225
 Vib (V=0)   20  0.107851D+01          0.032824          0.075579
 Electronic      0.200000D+01          0.301030          0.693147
 Translational   0.135185D+09          8.130930         18.722158
 Rotational      0.666888D+06          5.824053         13.410378
 ***** Axes restored to original set *****
 -------------------------------------------------------------------
 Center     Atomic                   Forces (Hartrees/Bohr)
 Number     Number              X              Y              Z
 -------------------------------------------------------------------
      1       28           0.000000000    0.000000000   -0.000010514
      2       28           0.000000000    0.000000000    0.000000691
      3        6           0.000000000   -0.000003466    0.000003707
      4        6           0.000000000    0.000000000    0.000000405
      5        6           0.000000000    0.000003466    0.000003707
      6        8           0.000000000    0.000000000   -0.000002871
      7        8           0.000000000    0.000000157   -0.000000435
      8        8           0.000000000   -0.000000157   -0.000000435
      9        6           0.000000000    0.000000000    0.000001779
     10        8           0.000000000    0.000000000    0.000003967
 -------------------------------------------------------------------
 Cartesian Forces:  Max     0.000010514 RMS     0.000002518

 GradGradGradGradGradGradGradGradGradGradGradGradGradGradGradGradGradGrad
 Berny optimization.
 Search for a local minimum.
 Step number   1 out of a maximum of    2
 All quantities printed in internal units (Hartrees-Bohrs-Radians)
 Second derivative matrix not updated -- analytic derivatives used.
     Eigenvalues ---    0.00021   0.00075   0.00275   0.00293   0.00915
     Eigenvalues ---    0.01387   0.02179   0.03251   0.04122   0.04241
     Eigenvalues ---    0.05370   0.06222   0.08606   0.08986   0.09364
     Eigenvalues ---    0.11242   0.11913   0.25394   0.25955   0.41102
     Eigenvalues ---    1.83277   1.85849   1.99635   2.09695
 Angle between quadratic step and forces=  43.71 degrees.
 ClnCor:  largest displacement from symmetrization is 5.29D-10 for atom    10.
 Linear search not attempted -- first point.
 ClnCor:  largest displacement from symmetrization is 3.24D-26 for atom    10.
 TrRot=  0.000000  0.000000 -0.000014  0.000000  0.000000  0.000000
 Variable       Old X    -DE/DX   Delta X   Delta X   Delta X     New X
                                 (Linear)    (Quad)   (Total)
    X1        0.00000   0.00000   0.00000   0.00000   0.00000   0.00000
    Y1        0.00000   0.00000   0.00000   0.00000   0.00000   0.00000
    Z1       -2.18688  -0.00001   0.00000  -0.00012  -0.00013  -2.18701
    X2        0.00000   0.00000   0.00000   0.00000   0.00000   0.00000
    Y2        0.00000   0.00000   0.00000   0.00000   0.00000   0.00000
    Z2        2.19502   0.00000   0.00000  -0.00001  -0.00002   2.19500
    X3        0.00000   0.00000   0.00000   0.00000   0.00000   0.00000
    Y3        2.94228   0.00000   0.00000  -0.00009  -0.00009   2.94219
    Z3       -0.29728   0.00000   0.00000   0.00014   0.00013  -0.29716
    X4        0.00000   0.00000   0.00000   0.00000   0.00000   0.00000
    Y4        0.00000   0.00000   0.00000   0.00000   0.00000   0.00000
    Z4       -5.49499   0.00000   0.00000  -0.00011  -0.00012  -5.49510
    X5        0.00000   0.00000   0.00000   0.00000   0.00000   0.00000
    Y5       -2.94228   0.00000   0.00000   0.00009   0.00009  -2.94219
    Z5       -0.29728   0.00000   0.00000   0.00014   0.00013  -0.29716
    X6        0.00000   0.00000   0.00000   0.00000   0.00000   0.00000
    Y6        0.00000   0.00000   0.00000   0.00000   0.00000   0.00000
    Z6       -7.68870   0.00000   0.00000  -0.00011  -0.00012  -7.68882
    X7        0.00000   0.00000   0.00000   0.00000   0.00000   0.00000
    Y7       -5.09209   0.00000   0.00000   0.00007   0.00007  -5.09203
    Z7        0.20655   0.00000   0.00000   0.00007   0.00005   0.20660
    X8        0.00000   0.00000   0.00000   0.00000   0.00000   0.00000
    Y8        5.09209   0.00000   0.00000  -0.00007  -0.00007   5.09203
    Z8        0.20655   0.00000   0.00000   0.00007   0.00005   0.20660
    X9        0.00000   0.00000   0.00000   0.00000   0.00000   0.00000
    Y9        0.00000   0.00000   0.00000   0.00000   0.00000   0.00000
    Z9        5.49799   0.00000   0.00000   0.00003   0.00002   5.49801
   X10        0.00000   0.00000   0.00000   0.00000   0.00000   0.00000
   Y10        0.00000   0.00000   0.00000   0.00000   0.00000   0.00000
   Z10        7.69077   0.00000   0.00000   0.00004   0.00002   7.69079
         Item               Value     Threshold  Converged?
 Maximum Force            0.000011     0.000015     YES
 RMS     Force            0.000003     0.000010     YES
 Maximum Displacement     0.000134     0.000060     NO 
 RMS     Displacement     0.000060     0.000040     NO 
 Predicted change in Energy=-1.664940D-09
 GradGradGradGradGradGradGradGradGradGradGradGradGradGradGradGradGradGrad


 Test job not archived.
 1|1|UNPC-123-PC|Freq|UB3LYP|6-311+G(d)|C4Ni2O4(1-,2)|123|18-Oct-2016|0
 ||#N Geom=AllCheck Guess=TCheck SCRF=Check Test GenChk UB3LYP/6-311+G(
 d) Freq||Title Card Required||-1,2|Ni,0.,0.,-1.157247|Ni,0.,0.,1.16155
 7|C,0.,1.556987,-0.157315|C,0.,0.,-2.907821|C,0.,-1.556987,-0.157315|O
 ,0.,0.,-4.068684|O,0.,-2.69462,0.1093|O,0.,2.69462,0.1093|C,0.,0.,2.90
 9411|O,0.,0.,4.069779||Version=IA32W-G09RevA.02|State=2-B1|HF=-3470.23
 05479|S2=0.767079|S2-1=0.|S2A=0.750233|RMSD=1.728e-009|RMSF=2.518e-006
 |ZeroPoint=0.0304433|Thermal=0.0430937|Dipole=0.,0.,0.0437072|DipoleDe
 riv=-0.4001339,0.,0.,0.,-0.864993,0.,0.,0.,-1.0619783,-0.2272097,0.,0.
 ,0.,-0.2992348,0.,0.,0.,-1.0453033,0.0749446,0.,0.,0.,2.706319,-0.1511
 8,0.,0.322838,0.1072635,0.1150557,0.,0.,0.,0.2102837,0.,0.,0.,3.923124
 ,0.0749446,0.,0.,0.,2.706319,0.1511799,0.,-0.322838,0.1072636,-0.18821
 09,0.,0.,0.,-0.2113652,0.,0.,0.,-3.4692951,-0.1641076,0.,0.,0.,-2.5160
 942,0.0590977,0.,0.4272982,-0.10775,-0.1641076,0.,0.,0.,-2.5160942,-0.
 0590977,0.,-0.4272982,-0.10775,0.0468322,0.,0.,0.,-0.086855,0.,0.,0.,4
 .0688189,-0.1680073,0.,0.,0.,-0.1282854,0.,0.,0.,-3.4143933|Polar=89.3
 589203,0.,135.79657,0.,0.,246.5434089|PG=C02V [C2(O1C1Ni1Ni1C1O1),SGV(
 C2O2)]|NImag=0||0.05613439,0.,0.20265237,0.,0.,0.29638332,-0.00597045,
 0.,0.,0.02539991,0.,0.00663349,0.,0.,0.06591826,0.,-0.00000001,-0.0799
 2696,0.,0.,0.26080036,-0.02532279,0.,0.,-0.00495400,0.,0.,0.04578528,0
 .,-0.07304996,-0.03708115,0.,-0.00333292,-0.01192930,0.,0.94751343,0.,
 0.00096385,-0.00657618,0.,0.00183144,-0.00403849,0.,0.22126792,0.08343
 277,-0.04029299,0.,0.,0.00326790,0.,0.,0.00464812,0.,0.,0.05858821,0.,
 -0.05519165,0.,0.,-0.00172424,0.,0.,0.00345396,-0.02422747,0.,0.088013
 16,0.,0.,-0.14270813,0.,0.,-0.00199249,0.,-0.01747868,-0.01731510,0.,0
 .,1.12876812,-0.02532278,0.,0.,-0.00495400,0.,0.,0.00537575,0.,0.,0.00
 464811,0.,0.,0.04578527,0.,-0.07304998,0.03708115,0.,-0.00333292,0.011
 92931,0.,-0.03424811,0.00251265,0.,0.00345397,0.01747867,0.,0.94751344
 ,0.,-0.00096384,-0.00657618,0.,-0.00183144,-0.00403849,0.,-0.00251265,
 -0.00618427,0.,0.02422747,-0.01731509,0.,-0.22126792,0.08343278,0.0160
 7235,0.,0.,-0.00088879,0.,0.,-0.00055712,0.,0.,-0.02931858,0.,0.,-0.00
 055712,0.,0.,0.01583297,0.,0.01929429,0.,0.,0.00050862,0.,0.,0.0000168
 7,0.00789632,0.,-0.03894377,0.,0.,0.00001687,-0.00789631,0.,0.01916821
 ,0.,-0.00000001,-0.04074819,0.,0.,-0.00071150,0.,0.01480319,0.00638873
 ,0.,0.00000001,-0.95929932,0.,-0.01480318,0.00638873,0.,0.,0.99546276,
 0.01021228,0.,0.,0.00256379,0.,0.,-0.00037034,0.,0.,-0.00152397,0.,0.,
 -0.02371547,0.,0.,0.00011198,0.,0.,0.01314117,0.,-0.01706947,0.0110740
 1,0.,-0.02377805,-0.01750917,0.,0.01166069,-0.00175751,0.,-0.00103577,
 -0.01824950,0.,-0.84943151,0.20344511,0.,0.00045688,0.01630863,0.,0.89
 122913,0.,0.02077561,-0.00860832,0.,-0.00466182,0.00397708,0.,0.004057
 72,0.00504109,0.,-0.00848816,0.00702893,0.,0.18830669,-0.05858319,0.,0
 .00247756,-0.00445421,0.,-0.20090066,0.06198989,0.01021229,0.,0.,0.002
 56379,0.,0.,-0.02371547,0.,0.,-0.00152398,0.,0.,-0.00037034,0.,0.,0.00
 011198,0.,0.,-0.00034774,0.,0.,0.01314117,0.,-0.01706948,-0.01107401,0
 .,-0.02377805,0.01750916,0.,-0.84943150,-0.20344510,0.,-0.00103575,0.0
 1824950,0.,0.01166069,0.00175751,0.,0.00045688,-0.01630864,0.,-0.01205
 819,0.00016142,0.,0.89122913,0.,-0.02077562,-0.00860833,0.,0.00466182,
 0.00397708,0.,-0.18830669,-0.05858319,0.,0.00848816,0.00702893,0.,-0.0
 0405771,0.00504109,0.,-0.00247756,-0.00445421,0.,-0.00016142,-0.001321
 30,0.,0.20090066,0.06198989,0.00643880,0.,0.,-0.03160720,0.,0.,-0.0017
 0987,0.,0.,0.00317150,0.,0.,-0.00170986,0.,0.,-0.00162562,0.,0.,0.0000
 2656,0.,0.,0.00002657,0.,0.,0.05482877,0.,0.00975575,0.,0.,-0.02830385
 ,0.,0.,-0.00455368,-0.00597762,0.,0.00432535,0.,0.,-0.00455369,0.00597
 762,0.,-0.00137465,0.,0.,-0.00010884,-0.00220686,0.,-0.00010884,0.0022
 0685,0.,0.05034662,0.,-0.00000001,-0.00123285,0.,0.,-0.14139947,0.,0.0
 3688705,0.00261116,0.,0.,-0.01772151,0.,-0.03688704,0.00261116,0.,0.,0
 .01380416,0.,0.02346335,-0.01011154,0.,-0.02346335,-0.01011154,0.,0.,1
 .12571826,-0.00216110,0.,0.,0.01457904,0.,0.,0.00082043,0.,0.,-0.00166
 432,0.,0.,0.00082043,0.,0.,0.00081795,0.,0.,-0.00009826,0.,0.,-0.00009
 826,0.,0.,-0.02783963,0.,0.,0.01482373,0.,-0.00290536,0.,0.,0.01118966
 ,0.,0.,0.00197122,0.00093554,0.,-0.00131526,0.,0.,0.00197122,-0.000935
 54,0.,0.00039979,0.,0.,0.00013511,0.00047850,0.,0.00013511,-0.00047850
 ,0.,-0.02542417,0.,0.,0.01384267,0.,0.00000002,-0.00139818,0.,0.,-0.03
 664712,0.,-0.01970741,-0.00477654,0.,-0.00000002,0.01352565,0.,0.01970
 739,-0.00477653,0.,0.,-0.01237695,0.,-0.01571284,0.00504158,0.,0.01571
 285,0.00504158,0.,0.,-0.96416783,0.,0.,1.00053435||0.,0.,0.00001051,0.
 ,0.,-0.00000069,0.,0.00000347,-0.00000371,0.,0.,-0.00000040,0.,-0.0000
 0347,-0.00000371,0.,0.,0.00000287,0.,-0.00000016,0.00000043,0.,0.00000
 016,0.00000043,0.,0.,-0.00000178,0.,0.,-0.00000397|||@


 Everything starts as somebody's daydream.
                           -- Larry Niven
 Job cpu time:  0 days  1 hours  3 minutes 40.0 seconds.
 File lengths (MBytes):  RWF=    236 Int=      0 D2E=      0 Chk=      8 Scr=      1
 Normal termination of Gaussian 09 at Tue Oct 18 14:55:05 2016.
