 Entering Link 1 = C:\G09W\l1.exe PID=     11564.
  
 Copyright (c) 1988,1990,1992,1993,1995,1998,2003,2009, Gaussian, Inc.
                  All Rights Reserved.
  
 This is part of the Gaussian(R) 09 program.  It is based on
 the Gaussian(R) 03 system (copyright 2003, Gaussian, Inc.),
 the Gaussian(R) 98 system (copyright 1998, Gaussian, Inc.),
 the Gaussian(R) 94 system (copyright 1995, Gaussian, Inc.),
 the Gaussian 92(TM) system (copyright 1992, Gaussian, Inc.),
 the Gaussian 90(TM) system (copyright 1990, Gaussian, Inc.),
 the Gaussian 88(TM) system (copyright 1988, Gaussian, Inc.),
 the Gaussian 86(TM) system (copyright 1986, Carnegie Mellon
 University), and the Gaussian 82(TM) system (copyright 1983,
 Carnegie Mellon University). Gaussian is a federally registered
 trademark of Gaussian, Inc.
  
 This software contains proprietary and confidential information,
 including trade secrets, belonging to Gaussian, Inc.
  
 This software is provided under written license and may be
 used, copied, transmitted, or stored only in accord with that
 written license.
  
 The following legend is applicable only to US Government
 contracts under FAR:
  
                    RESTRICTED RIGHTS LEGEND
  
 Use, reproduction and disclosure by the US Government is
 subject to restrictions as set forth in subparagraphs (a)
 and (c) of the Commercial Computer Software - Restricted
 Rights clause in FAR 52.227-19.
  
 Gaussian, Inc.
 340 Quinnipiac St., Bldg. 40, Wallingford CT 06492
  
  
 ---------------------------------------------------------------
 Warning -- This program may not be used in any manner that
 competes with the business of Gaussian, Inc. or will provide
 assistance to any competitor of Gaussian, Inc.  The licensee
 of this program is prohibited from giving any competitor of
 Gaussian, Inc. access to this program.  By using this program,
 the user acknowledges that Gaussian, Inc. is engaged in the
 business of creating and licensing software in the field of
 computational chemistry and represents and warrants to the
 licensee that it is not a competitor of Gaussian, Inc. and that
 it will not use this program in any manner prohibited above.
 ---------------------------------------------------------------
  

 Cite this work as:
 Gaussian 09, Revision A.02,
 M. J. Frisch, G. W. Trucks, H. B. Schlegel, G. E. Scuseria, 
 M. A. Robb, J. R. Cheeseman, G. Scalmani, V. Barone, B. Mennucci, 
 G. A. Petersson, H. Nakatsuji, M. Caricato, X. Li, H. P. Hratchian, 
 A. F. Izmaylov, J. Bloino, G. Zheng, J. L. Sonnenberg, M. Hada, 
 M. Ehara, K. Toyota, R. Fukuda, J. Hasegawa, M. Ishida, T. Nakajima, 
 Y. Honda, O. Kitao, H. Nakai, T. Vreven, J. A. Montgomery, Jr., 
 J. E. Peralta, F. Ogliaro, M. Bearpark, J. J. Heyd, E. Brothers, 
 K. N. Kudin, V. N. Staroverov, R. Kobayashi, J. Normand, 
 K. Raghavachari, A. Rendell, J. C. Burant, S. S. Iyengar, J. Tomasi, 
 M. Cossi, N. Rega, J. M. Millam, M. Klene, J. E. Knox, J. B. Cross, 
 V. Bakken, C. Adamo, J. Jaramillo, R. Gomperts, R. E. Stratmann, 
 O. Yazyev, A. J. Austin, R. Cammi, C. Pomelli, J. W. Ochterski, 
 R. L. Martin, K. Morokuma, V. G. Zakrzewski, G. A. Voth, 
 P. Salvador, J. J. Dannenberg, S. Dapprich, A. D. Daniels, 
 O. Farkas, J. B. Foresman, J. V. Ortiz, J. Cioslowski, 
 and D. J. Fox, Gaussian, Inc., Wallingford CT, 2009.
 
 ******************************************
 Gaussian 09:  IA32W-G09RevA.02 11-Jun-2009
                22-Oct-2016 
 ******************************************
 %chk=E:\theoretical calculation\Ni2COn-\6311+Gd Use\Ni2CO4-_31_A1_2th_4_C2v_big_
 chk_NBO.chk
 %mem=400MB
 ------------------------------------------------------------------
 # ub3lyp/6-311+g(d) guess=read geom=allcheck pop=(nboread,savenbo)
 ------------------------------------------------------------------
 1/29=7,38=1/1;
 2/12=2,40=1/2;
 3/5=4,6=6,7=11,11=2,14=-4,16=1,25=1,30=1,74=-5,116=2/1,2,3;
 4/5=1/1;
 5/5=2,38=6/2;
 6/7=2,8=2,9=2,10=2,28=1,40=1,73=1/1,7;
 99/5=1,9=1/99;
 -------------------
 Title Card Required
 -------------------
 No Z-matrix found on checkpoint file.
 Cartesian coordinates read from the checkpoint file:
 E:\theoretical calculation\Ni2COn-\6311+Gd Use\Ni2CO4-_31_A1_2th_4_C2v_big_chk_NBO.chk
 Charge = -1 Multiplicity = 2
  Ni                                                0.000000000000      0.000000000000     -1.157247000000
  Ni                                                0.000000000000      0.000000000000      1.161557000000
  C                                                 0.000000000000      1.556987000000     -0.157315000000
  C                                                 0.000000000000      0.000000000000     -2.907821000000
  C                                                 0.000000000000     -1.556987000000     -0.157315000000
  O                                                 0.000000000000      0.000000000000     -4.068684000000
  O                                                 0.000000000000     -2.694620000000      0.109300000000
  O                                                 0.000000000000      2.694620000000      0.109300000000
  C                                                 0.000000000000      0.000000000000      2.909411000000
  O                                                 0.000000000000      0.000000000000      4.069779000000
 Recover connectivity data from disk.
                          Input orientation:                          
 ---------------------------------------------------------------------
 Center     Atomic      Atomic             Coordinates (Angstroms)
 Number     Number       Type             X           Y           Z
 ---------------------------------------------------------------------
      1         28           0        0.000000    0.000000   -1.157247
      2         28           0        0.000000    0.000000    1.161557
      3          6           0        0.000000    1.556987   -0.157315
      4          6           0        0.000000    0.000000   -2.907821
      5          6           0        0.000000   -1.556987   -0.157315
      6          8           0        0.000000    0.000000   -4.068684
      7          8           0        0.000000   -2.694620    0.109300
      8          8           0        0.000000    2.694620    0.109300
      9          6           0        0.000000    0.000000    2.909411
     10          8           0        0.000000    0.000000    4.069779
 ---------------------------------------------------------------------
                    Distance matrix (angstroms):
                    1          2          3          4          5
     1  Ni   0.000000
     2  Ni   2.318804   0.000000
     3  C    1.850425   2.040498   0.000000
     4  C    1.750574   4.069378   3.160616   0.000000
     5  C    1.850425   2.040498   3.113974   3.160616   0.000000
     6  O    2.911437   5.230241   4.209871   1.160863   4.209871
     7  O    2.977435   2.892788   4.259958   4.045244   1.168457
     8  O    2.977435   2.892788   1.168457   4.045244   4.259958
     9  C    4.066658   1.747854   3.439334   5.817232   3.439334
    10  O    5.227026   2.908222   4.504723   6.977600   4.504723
                    6          7          8          9         10
     6  O    0.000000
     7  O    4.971572   0.000000
     8  O    4.971572   5.389240   0.000000
     9  C    6.978095   3.886078   3.886078   0.000000
    10  O    8.138463   4.790237   4.790237   1.160368   0.000000
 Stoichiometry    C4Ni2O4(1-,2)
 Framework group  C2V[C2(OCNiNiCO),SGV(C2O2)]
 Deg. of freedom     9
 Full point group                 C2V     NOp   4
 Largest Abelian subgroup         C2V     NOp   4
 Largest concise Abelian subgroup C2      NOp   2
                         Standard orientation:                         
 ---------------------------------------------------------------------
 Center     Atomic      Atomic             Coordinates (Angstroms)
 Number     Number       Type             X           Y           Z
 ---------------------------------------------------------------------
      1         28           0        0.000000    0.000000   -1.157247
      2         28           0        0.000000    0.000000    1.161557
      3          6           0        0.000000    1.556987   -0.157315
      4          6           0        0.000000    0.000000   -2.907821
      5          6           0        0.000000   -1.556987   -0.157315
      6          8           0        0.000000    0.000000   -4.068684
      7          8           0        0.000000   -2.694620    0.109300
      8          8           0        0.000000    2.694620    0.109300
      9          6           0        0.000000    0.000000    2.909411
     10          8           0        0.000000    0.000000    4.069779
 ---------------------------------------------------------------------
 Rotational constants (GHZ):      1.7399358      0.5681730      0.4283093
 Standard basis: 6-311+G(d) (5D, 7F)
 There are   130 symmetry adapted basis functions of A1  symmetry.
 There are    26 symmetry adapted basis functions of A2  symmetry.
 There are    58 symmetry adapted basis functions of B1  symmetry.
 There are    78 symmetry adapted basis functions of B2  symmetry.
 Integral buffers will be    262144 words long.
 Raffenetti 2 integral format.
 Two-electron integral symmetry is turned on.
   292 basis functions,   476 primitive gaussians,   314 cartesian basis functions
    57 alpha electrons       56 beta electrons
       nuclear repulsion energy      1022.0512066930 Hartrees.
 NAtoms=   10 NActive=   10 NUniq=    8 SFac= 1.17D+00 NAtFMM=   80 NAOKFM=F Big=F
 One-electron integrals computed using PRISM.
 NBasis=   292 RedAO= T  NBF=   130    26    58    78
 NBsUse=   292 1.00D-06 NBFU=   130    26    58    78
 Initial guess read from the checkpoint file:  E:\theoretical calculation\Ni2COn-
 \6311+Gd Use\Ni2CO4-_31_A1_2th_4_C2v_big_chk_NBO.chk
 B after Tr=     0.000000    0.000000    0.000000
         Rot=    1.000000    0.000000    0.000000    0.000000 Ang=   0.00 deg.
 Initial guess orbital symmetries:
 Alpha Orbitals:
       Occupied  (A1) (A1) (A1) (A1) (A1) (B2) (B1) (A1) (B2) (B1)
                 (A1) (A1) (A1) (B2) (A1) (A1) (A1) (B2) (A1) (A1)
                 (A1) (B2) (A1) (B1) (B2) (B1) (A1) (A1) (A1) (B2)
                 (A1) (A1) (B2) (A1) (A1) (A1) (B2) (B1) (B1) (B2)
                 (B1) (B2) (A2) (A1) (B2) (A1) (B1) (A1) (A2) (B2)
                 (A1) (A1) (B1) (A2) (B2) (A1) (B1)
       Virtual   (B2) (B1) (A1) (A1) (A2) (B2) (B1) (A1) (B2) (A1)
                 (B2) (B1) (A1) (A1) (B2) (B1) (A1) (A1) (B2) (A2)
                 (B1) (A1) (A1) (B1) (B2) (B2) (B1) (A1) (A1) (B2)
                 (B2) (A1) (B1) (A1) (B1) (B2) (A2) (A1) (A1) (B1)
                 (A1) (B2) (A1) (B2) (A1) (B2) (A1) (B1) (A1) (B2)
                 (A2) (A1) (B1) (A1) (A1) (B2) (A2) (B2) (B1) (A1)
                 (A1) (B2) (A1) (B1) (A1) (B1) (A2) (B2) (A1) (B1)
                 (B2) (B2) (B1) (B2) (A1) (A1) (B2) (A1) (A1) (B2)
                 (A1) (A1) (A1) (B2) (A1) (A1) (A1) (A2) (B1) (B1)
                 (B1) (B2) (A1) (A1) (B2) (A1) (B2) (B2) (A1) (A2)
                 (A2) (A1) (B2) (B1) (A2) (B1) (A1) (A2) (B2) (B1)
                 (B1) (A1) (A1) (B2) (A1) (B2) (A1) (B2) (A2) (A1)
                 (A1) (A2) (B1) (B2) (B1) (A1) (B1) (B1) (A1) (A1)
                 (B2) (B2) (A1) (B2) (A1) (A1) (B2) (B1) (B1) (A2)
                 (B1) (B2) (A1) (B2) (A2) (A1) (A2) (A1) (B1) (A1)
                 (A2) (B2) (A1) (B2) (A1) (A1) (A1) (B2) (A1) (B1)
                 (A2) (B1) (B2) (B1) (B2) (A1) (B2) (A2) (B1) (B1)
                 (A2) (A1) (B2) (B2) (B1) (A1) (B1) (A1) (B2) (A1)
                 (B2) (A1) (B2) (A1) (A1) (A1) (A1) (A2) (B1) (B1)
                 (B1) (B2) (B2) (B2) (A1) (A1) (B2) (A1) (A1) (A2)
                 (B1) (A2) (A1) (A1) (B1) (A1) (B2) (B2) (A1) (B1)
                 (B1) (B2) (B2) (A1) (A1) (A1) (A1) (B2) (A1) (A1)
                 (A1) (B1) (B1) (B2) (B2) (A1) (A1) (B2) (A1) (A1)
                 (A1) (A1) (A1) (A1) (A1)
 Beta  Orbitals:
       Occupied  (A1) (A1) (A1) (A1) (A1) (B2) (B1) (A1) (B2) (B1)
                 (A1) (A1) (A1) (B2) (A1) (A1) (B2) (A1) (A1) (A1)
                 (A1) (B2) (A1) (B1) (B2) (B1) (A1) (A1) (A1) (B2)
                 (A1) (A1) (B2) (A1) (A1) (B2) (A1) (B2) (B1) (B2)
                 (B1) (A1) (B2) (B1) (A2) (A1) (B1) (A1) (A2) (B2)
                 (A1) (B1) (A1) (A2) (B2) (A1)
       Virtual   (B1) (B2) (A1) (A1) (B1) (B2) (A1) (A2) (B1) (B2)
                 (A1) (B2) (B1) (A1) (B2) (A1) (B1) (A1) (A1) (B2)
                 (A2) (B1) (A1) (A1) (B1) (B2) (B2) (B1) (A1) (A1)
                 (B2) (B2) (A1) (B1) (A1) (B1) (B2) (A2) (A1) (A1)
                 (B1) (A1) (B2) (A1) (B2) (A1) (B2) (A1) (B1) (A1)
                 (B2) (A1) (A2) (B1) (A1) (A1) (B2) (A2) (B2) (A1)
                 (B1) (A1) (B2) (A1) (A1) (B1) (B1) (B2) (A2) (A1)
                 (B1) (B2) (B2) (B1) (A1) (B2) (A1) (B2) (A1) (A1)
                 (B2) (A1) (A1) (A1) (B2) (A1) (A1) (A1) (B1) (A2)
                 (B1) (B1) (B2) (A1) (A1) (B2) (A1) (B2) (B2) (A1)
                 (A2) (A2) (A1) (B2) (B1) (A2) (B1) (A1) (A2) (B2)
                 (B1) (B1) (A1) (A1) (B2) (A1) (B2) (A1) (B2) (A2)
                 (A1) (A1) (A2) (B1) (B2) (B1) (A1) (B1) (B1) (A1)
                 (A1) (B2) (B2) (A1) (B2) (A1) (A1) (B2) (B1) (B1)
                 (A2) (B1) (B2) (A1) (B2) (A2) (A1) (A2) (A1) (A1)
                 (B1) (A2) (B2) (A1) (B2) (A1) (A1) (A1) (B2) (A1)
                 (B1) (A2) (B1) (B2) (B1) (B2) (A1) (B2) (A2) (B1)
                 (B1) (A2) (A1) (B2) (B2) (B1) (A1) (B1) (A1) (B2)
                 (A1) (B2) (A1) (B2) (A1) (A1) (A1) (A1) (B1) (A2)
                 (B1) (B1) (B2) (B2) (B2) (A1) (A1) (B2) (A1) (A1)
                 (A2) (B1) (A2) (A1) (A1) (B1) (A1) (B2) (B2) (A1)
                 (B1) (B1) (B2) (B2) (A1) (A1) (A1) (A1) (B2) (A1)
                 (A1) (A1) (B1) (B1) (B2) (B2) (A1) (A1) (B2) (A1)
                 (A1) (A1) (A1) (A1) (A1) (A1)
 Initial guess <Sx>= 0.0000 <Sy>= 0.0000 <Sz>= 0.5000 <S**2>= 0.7671 S= 0.5085
 Requested convergence on RMS density matrix=1.00D-08 within 128 cycles.
 Requested convergence on MAX density matrix=1.00D-06.
 Requested convergence on             energy=1.00D-06.
 No special actions if energy rises.
 SCF Done:  E(UB3LYP) =  -3470.23057457     A.U. after    8 cycles
             Convg  =    0.6562D-08             -V/T =  2.0011
 <Sx>= 0.0000 <Sy>= 0.0000 <Sz>= 0.5000 <S**2>= 0.7671 S= 0.5085
 <L.S>= 0.000000000000E+00
 Annihilation of the first spin contaminant:
 S**2 before annihilation     0.7671,   after     0.7502

 **********************************************************************

            Population analysis using the SCF density.

 **********************************************************************

 Orbital symmetries:
 Alpha Orbitals:
       Occupied  (A1) (A1) (A1) (A1) (A1) (B2) (B1) (A1) (B2) (B1)
                 (A1) (A1) (A1) (B2) (A1) (A1) (A1) (B2) (A1) (A1)
                 (A1) (B2) (A1) (B1) (B2) (B1) (A1) (A1) (A1) (B2)
                 (A1) (A1) (B2) (A1) (A1) (A1) (B2) (B1) (B1) (B2)
                 (B1) (B2) (A2) (A1) (B2) (A1) (B1) (A1) (A2) (B2)
                 (A1) (A1) (B1) (A2) (B2) (A1) (B1)
       Virtual   (B2) (B1) (A1) (A1) (A2) (B2) (B1) (A1) (B2) (A1)
                 (B2) (B1) (A1) (B2) (A1) (B1) (A1) (A1) (B2) (A2)
                 (B1) (A1) (A1) (B1) (B2) (B2) (B1) (A1) (A1) (B2)
                 (B2) (A1) (B1) (A1) (B1) (B2) (A2) (A1) (A1) (B1)
                 (A1) (B2) (A1) (B2) (A1) (B2) (A1) (B1) (A1) (B2)
                 (A2) (A1) (B1) (A1) (A1) (B2) (A2) (B2) (B1) (A1)
                 (A1) (B2) (A1) (B1) (A1) (B1) (A2) (B2) (A1) (B1)
                 (B2) (B2) (B1) (B2) (A1) (A1) (B2) (A1) (A1) (B2)
                 (A1) (A1) (A1) (B2) (A1) (A1) (A1) (A2) (B1) (B1)
                 (B1) (B2) (A1) (A1) (B2) (A1) (B2) (B2) (A1) (A2)
                 (A2) (A1) (B2) (B1) (A2) (B1) (A1) (A2) (B2) (B1)
                 (B1) (A1) (A1) (B2) (A1) (B2) (A1) (B2) (A2) (A1)
                 (A1) (A2) (B1) (B2) (B1) (A1) (B1) (B1) (A1) (A1)
                 (B2) (B2) (A1) (B2) (A1) (A1) (B2) (B1) (B1) (A2)
                 (B1) (B2) (A1) (B2) (A2) (A1) (A2) (A1) (B1) (A1)
                 (A2) (B2) (A1) (B2) (A1) (A1) (A1) (B2) (A1) (B1)
                 (A2) (B1) (B2) (B1) (B2) (A1) (B2) (A2) (B1) (B1)
                 (A2) (A1) (B2) (B2) (B1) (A1) (B1) (A1) (B2) (A1)
                 (B2) (A1) (B2) (A1) (A1) (A1) (A1) (A2) (B1) (B1)
                 (B1) (B2) (B2) (B2) (A1) (A1) (B2) (A1) (A1) (A2)
                 (B1) (A2) (A1) (A1) (B1) (A1) (B2) (B2) (A1) (B1)
                 (B1) (B2) (B2) (A1) (A1) (A1) (A1) (B2) (A1) (A1)
                 (A1) (B1) (B1) (B2) (B2) (A1) (A1) (B2) (A1) (A1)
                 (A1) (A1) (A1) (A1) (A1)
 Beta  Orbitals:
       Occupied  (A1) (A1) (A1) (A1) (A1) (B2) (B1) (A1) (B2) (B1)
                 (A1) (A1) (A1) (B2) (A1) (A1) (B2) (A1) (A1) (A1)
                 (A1) (B2) (A1) (B1) (B2) (B1) (A1) (A1) (A1) (B2)
                 (A1) (A1) (B2) (A1) (A1) (B2) (A1) (B2) (B1) (B2)
                 (B1) (A1) (B2) (B1) (A2) (A1) (B1) (A1) (A2) (B2)
                 (A1) (B1) (A1) (A2) (B2) (A1)
       Virtual   (B1) (B2) (A1) (A1) (B1) (B2) (A1) (A2) (B1) (B2)
                 (A1) (B2) (B1) (A1) (B2) (A1) (B1) (A1) (A1) (B2)
                 (A2) (B1) (A1) (A1) (B1) (B2) (B2) (B1) (A1) (A1)
                 (B2) (B2) (A1) (B1) (A1) (B1) (B2) (A2) (A1) (A1)
                 (B1) (A1) (B2) (A1) (B2) (A1) (B2) (A1) (B1) (A1)
                 (B2) (A1) (A2) (B1) (A1) (A1) (B2) (A2) (B2) (A1)
                 (B1) (A1) (B2) (A1) (A1) (B1) (B1) (B2) (A2) (A1)
                 (B1) (B2) (B2) (B1) (A1) (B2) (A1) (B2) (A1) (A1)
                 (B2) (A1) (A1) (A1) (B2) (A1) (A1) (A1) (B1) (A2)
                 (B1) (B1) (B2) (A1) (A1) (B2) (A1) (B2) (B2) (A1)
                 (A2) (A2) (A1) (B2) (B1) (A2) (B1) (A1) (A2) (B2)
                 (B1) (B1) (A1) (A1) (B2) (A1) (B2) (A1) (B2) (A2)
                 (A1) (A1) (A2) (B1) (B2) (B1) (A1) (B1) (B1) (A1)
                 (A1) (B2) (B2) (A1) (B2) (A1) (A1) (B2) (B1) (B1)
                 (A2) (B1) (B2) (A1) (B2) (A2) (A1) (A2) (A1) (A1)
                 (B1) (A2) (B2) (A1) (B2) (A1) (A1) (A1) (B2) (A1)
                 (B1) (A2) (B1) (B2) (B1) (B2) (A1) (B2) (A2) (B1)
                 (B1) (A2) (A1) (B2) (B2) (B1) (A1) (B1) (A1) (B2)
                 (A1) (B2) (A1) (B2) (A1) (A1) (A1) (A1) (B1) (A2)
                 (B1) (B1) (B2) (B2) (B2) (A1) (A1) (B2) (A1) (A1)
                 (A2) (B1) (A2) (A1) (A1) (B1) (A1) (B2) (B2) (A1)
                 (B1) (B1) (B2) (B2) (A1) (A1) (A1) (A1) (B2) (A1)
                 (A1) (A1) (B1) (B1) (B2) (B2) (A1) (A1) (B2) (A1)
                 (A1) (A1) (A1) (A1) (A1) (A1)
 The electronic state is 2-B1.
 Alpha  occ. eigenvalues -- -299.66655-299.64123 -35.59457 -35.56133 -31.04317
 Alpha  occ. eigenvalues --  -31.04195 -31.02982 -31.01230 -31.00505 -31.00030
 Alpha  occ. eigenvalues --  -19.05977 -19.05469 -19.04599 -19.04599 -10.13724
 Alpha  occ. eigenvalues --  -10.13561 -10.13498 -10.13498  -3.85437  -3.82541
 Alpha  occ. eigenvalues --   -2.45726  -2.45052  -2.43152  -2.42646  -2.41454
 Alpha  occ. eigenvalues --   -2.40337  -0.99104  -0.98701  -0.97527  -0.97512
 Alpha  occ. eigenvalues --   -0.44771  -0.43181  -0.42679  -0.42544  -0.34817
 Alpha  occ. eigenvalues --   -0.31973  -0.31922  -0.31871  -0.31592  -0.31520
 Alpha  occ. eigenvalues --   -0.30899  -0.30852  -0.30822  -0.30508  -0.30307
 Alpha  occ. eigenvalues --   -0.29517  -0.13687  -0.12621  -0.12302  -0.11450
 Alpha  occ. eigenvalues --   -0.11124  -0.09534  -0.09524  -0.09078  -0.09010
 Alpha  occ. eigenvalues --   -0.08172  -0.01069
 Alpha virt. eigenvalues --    0.05449   0.09238   0.09353   0.09613   0.11688
 Alpha virt. eigenvalues --    0.12602   0.12605   0.12816   0.14233   0.14474
 Alpha virt. eigenvalues --    0.14846   0.15979   0.16559   0.16918   0.16920
 Alpha virt. eigenvalues --    0.17843   0.18548   0.18988   0.19176   0.20015
 Alpha virt. eigenvalues --    0.21814   0.22998   0.23857   0.24590   0.25250
 Alpha virt. eigenvalues --    0.26090   0.26123   0.28488   0.29788   0.30992
 Alpha virt. eigenvalues --    0.33046   0.33453   0.36067   0.37040   0.37197
 Alpha virt. eigenvalues --    0.37561   0.38255   0.38959   0.39147   0.39586
 Alpha virt. eigenvalues --    0.39858   0.40750   0.41451   0.41587   0.42821
 Alpha virt. eigenvalues --    0.43018   0.43670   0.43823   0.44970   0.45600
 Alpha virt. eigenvalues --    0.46102   0.46167   0.46325   0.50890   0.51724
 Alpha virt. eigenvalues --    0.53364   0.56259   0.58166   0.58522   0.58752
 Alpha virt. eigenvalues --    0.60616   0.65904   0.69494   0.70864   0.71028
 Alpha virt. eigenvalues --    0.73195   0.75430   0.75836   0.76325   0.78053
 Alpha virt. eigenvalues --    0.78958   0.80949   0.84333   0.87130   0.87360
 Alpha virt. eigenvalues --    0.88582   0.91079   0.93555   0.95891   0.97939
 Alpha virt. eigenvalues --    0.98029   1.01053   1.03682   1.11463   1.11648
 Alpha virt. eigenvalues --    1.14881   1.21146   1.21917   1.22103   1.24184
 Alpha virt. eigenvalues --    1.25382   1.26237   1.26768   1.27961   1.28633
 Alpha virt. eigenvalues --    1.29551   1.30361   1.32018   1.32381   1.39317
 Alpha virt. eigenvalues --    1.42018   1.44605   1.48110   1.48670   1.49937
 Alpha virt. eigenvalues --    1.51457   1.52246   1.53222   1.53789   1.58119
 Alpha virt. eigenvalues --    1.60984   1.64116   1.67467   1.67596   1.73551
 Alpha virt. eigenvalues --    1.75590   1.78231   1.79845   1.80069   1.88138
 Alpha virt. eigenvalues --    1.90811   1.92880   1.93003   1.94553   2.00855
 Alpha virt. eigenvalues --    2.01147   2.02436   2.06153   2.06318   2.13051
 Alpha virt. eigenvalues --    2.18785   2.21938   2.22327   2.31786   2.32060
 Alpha virt. eigenvalues --    2.50538   2.67172   2.79455   2.81307   2.81900
 Alpha virt. eigenvalues --    2.82518   2.83447   2.84987   2.91171   2.93079
 Alpha virt. eigenvalues --    2.93277   2.93512   2.93847   2.94484   2.94528
 Alpha virt. eigenvalues --    2.94599   2.96134   2.97715   3.04683   3.06794
 Alpha virt. eigenvalues --    3.26416   3.31473   3.34787   3.41825   3.46941
 Alpha virt. eigenvalues --    3.47685   3.48428   3.49617   3.49824   3.52419
 Alpha virt. eigenvalues --    3.53755   3.54849   3.73914   3.74601   3.79056
 Alpha virt. eigenvalues --    3.80241   3.81133   3.81886   3.85169   3.85583
 Alpha virt. eigenvalues --    3.85722   3.86747   3.94583   3.95607   3.97500
 Alpha virt. eigenvalues --    3.98085   4.07259   4.09818   4.14323   4.23484
 Alpha virt. eigenvalues --    4.51560   4.66090   5.12987   5.13139   5.14666
 Alpha virt. eigenvalues --    5.16498   5.17178   5.19004   5.22691   5.24436
 Alpha virt. eigenvalues --    5.74608   5.74744   5.77442   5.78711   6.92049
 Alpha virt. eigenvalues --    6.95871   6.97205   7.03313   7.05630   7.08927
 Alpha virt. eigenvalues --    7.17115   7.22895   7.25706   7.57975   8.91477
 Alpha virt. eigenvalues --    8.92559   9.12206   9.26401   9.38554   9.44126
 Alpha virt. eigenvalues --   24.02263  24.02787  24.04773  24.07025  30.16450
 Alpha virt. eigenvalues --   30.50277  36.44197  36.46174  36.61353  36.69894
 Alpha virt. eigenvalues --   36.80961  36.83289  50.11648  50.13881  50.15979
 Alpha virt. eigenvalues --   50.16406 162.54085 162.82387 845.24773 845.53846
  Beta  occ. eigenvalues -- -299.66630-299.64106 -35.59771 -35.56398 -31.04577
  Beta  occ. eigenvalues --  -31.04422 -31.03217 -31.01480 -31.00654 -31.00249
  Beta  occ. eigenvalues --  -19.05812 -19.05260 -19.04301 -19.04301 -10.13614
  Beta  occ. eigenvalues --  -10.13438 -10.13355 -10.13355  -3.86055  -3.83073
  Beta  occ. eigenvalues --   -2.46413  -2.45649  -2.43823  -2.43293  -2.41848
  Beta  occ. eigenvalues --   -2.40943  -0.98818  -0.98343  -0.97017  -0.97003
  Beta  occ. eigenvalues --   -0.44034  -0.42729  -0.42015  -0.42012  -0.34420
  Beta  occ. eigenvalues --   -0.31677  -0.31625  -0.31333  -0.30959  -0.30564
  Beta  occ. eigenvalues --   -0.30475  -0.30195  -0.29991  -0.29356  -0.29332
  Beta  occ. eigenvalues --   -0.29085  -0.14161  -0.12829  -0.12599  -0.11815
  Beta  occ. eigenvalues --   -0.11151  -0.10107  -0.09729  -0.09503  -0.09063
  Beta  occ. eigenvalues --   -0.08230
  Beta virt. eigenvalues --    0.04208   0.05802   0.09386   0.09616   0.10408
  Beta virt. eigenvalues --    0.12719   0.12918   0.13744   0.14098   0.14265
  Beta virt. eigenvalues --    0.14484   0.14893   0.16218   0.16641   0.16916
  Beta virt. eigenvalues --    0.16954   0.17975   0.18698   0.18982   0.19135
  Beta virt. eigenvalues --    0.20073   0.21968   0.23035   0.23937   0.25055
  Beta virt. eigenvalues --    0.25173   0.26306   0.26790   0.28975   0.30014
  Beta virt. eigenvalues --    0.31035   0.33155   0.33661   0.36380   0.37172
  Beta virt. eigenvalues --    0.37474   0.37589   0.38445   0.39011   0.39292
  Beta virt. eigenvalues --    0.39835   0.39937   0.40768   0.41481   0.41622
  Beta virt. eigenvalues --    0.42936   0.43017   0.43817   0.44428   0.45156
  Beta virt. eigenvalues --    0.45584   0.46352   0.46661   0.46925   0.51027
  Beta virt. eigenvalues --    0.52008   0.53507   0.57066   0.58448   0.59120
  Beta virt. eigenvalues --    0.59416   0.61035   0.66166   0.69733   0.71384
  Beta virt. eigenvalues --    0.71584   0.73734   0.75991   0.76089   0.76560
  Beta virt. eigenvalues --    0.78682   0.79141   0.81064   0.84908   0.87675
  Beta virt. eigenvalues --    0.87809   0.88810   0.91340   0.93758   0.96080
  Beta virt. eigenvalues --    0.98236   0.98369   1.01490   1.03971   1.11885
  Beta virt. eigenvalues --    1.11932   1.15628   1.21556   1.22531   1.22617
  Beta virt. eigenvalues --    1.24734   1.25850   1.26347   1.26940   1.28112
  Beta virt. eigenvalues --    1.28753   1.29713   1.30518   1.32192   1.32566
  Beta virt. eigenvalues --    1.39986   1.42664   1.45186   1.48303   1.49389
  Beta virt. eigenvalues --    1.50586   1.52127   1.52603   1.53887   1.53916
  Beta virt. eigenvalues --    1.58973   1.61572   1.64473   1.67736   1.67802
  Beta virt. eigenvalues --    1.73922   1.76020   1.78405   1.79957   1.80211
  Beta virt. eigenvalues --    1.88356   1.90974   1.93198   1.93235   1.94768
  Beta virt. eigenvalues --    2.00943   2.01349   2.02670   2.06405   2.06526
  Beta virt. eigenvalues --    2.13298   2.18897   2.22047   2.22552   2.31938
  Beta virt. eigenvalues --    2.32101   2.50898   2.67430   2.80275   2.81984
  Beta virt. eigenvalues --    2.82821   2.83326   2.83581   2.85242   2.91364
  Beta virt. eigenvalues --    2.93587   2.93781   2.94155   2.94379   2.94816
  Beta virt. eigenvalues --    2.95381   2.95484   2.96960   2.98485   3.04877
  Beta virt. eigenvalues --    3.07037   3.26650   3.31619   3.34949   3.41924
  Beta virt. eigenvalues --    3.47434   3.48414   3.48899   3.49699   3.50510
  Beta virt. eigenvalues --    3.52533   3.53902   3.54977   3.73610   3.74471
  Beta virt. eigenvalues --    3.78938   3.80058   3.81198   3.81761   3.85135
  Beta virt. eigenvalues --    3.85465   3.85785   3.86566   3.94840   3.95602
  Beta virt. eigenvalues --    3.97604   3.98225   4.07215   4.09746   4.14229
  Beta virt. eigenvalues --    4.23362   4.51482   4.66003   5.13892   5.14156
  Beta virt. eigenvalues --    5.15790   5.17263   5.17338   5.19202   5.22967
  Beta virt. eigenvalues --    5.24715   5.74843   5.75023   5.77637   5.78905
  Beta virt. eigenvalues --    6.91726   6.95329   6.96833   7.03075   7.05418
  Beta virt. eigenvalues --    7.08384   7.16840   7.22614   7.25413   7.57717
  Beta virt. eigenvalues --    8.91186   8.92264   9.12000   9.26100   9.38212
  Beta virt. eigenvalues --    9.43800  24.02408  24.02936  24.04940  24.07162
  Beta virt. eigenvalues --   30.16082  30.49917  36.43878  36.45875  36.61147
  Beta virt. eigenvalues --   36.69590  36.80622  36.82952  50.11944  50.14094
  Beta virt. eigenvalues --   50.16172  50.16667 162.53947 162.82250 845.24756
  Beta virt. eigenvalues --  845.53829
          Condensed to atoms (all electrons):
              1          2          3          4          5          6
     1  Ni  29.035408  -0.472217   0.158245  -0.812225   0.158245   0.138159
     2  Ni  -0.472217  29.687778   0.275186  -1.107057   0.275186   0.042183
     3  C    0.158245   0.275186   6.421984  -0.361600   0.342758   0.010100
     4  C   -0.812225  -1.107057  -0.361600   9.473276  -0.361600  -0.234988
     5  C    0.158245   0.275186   0.342758  -0.361600   6.421984   0.010100
     6  O    0.138159   0.042183   0.010100  -0.234988   0.010100   8.174801
     7  O    0.013944  -0.064397  -0.035818   0.019016   0.144102   0.001091
     8  O    0.013944  -0.064397   0.144102   0.019016  -0.035818   0.001091
     9  C   -1.041238  -1.360149  -0.570210  -0.142125  -0.570210   0.000715
    10  O    0.040788   0.187686   0.019932   0.001256   0.019932   0.000005
              7          8          9         10
     1  Ni   0.013944   0.013944  -1.041238   0.040788
     2  Ni  -0.064397  -0.064397  -1.360149   0.187686
     3  C   -0.035818   0.144102  -0.570210   0.019932
     4  C    0.019016   0.019016  -0.142125   0.001256
     5  C    0.144102  -0.035818  -0.570210   0.019932
     6  O    0.001091   0.001091   0.000715   0.000005
     7  O    8.053153   0.001678   0.038994   0.000117
     8  O    0.001678   8.053153   0.038994   0.000117
     9  C    0.038994   0.038994  10.311276  -0.276296
    10  O    0.000117   0.000117  -0.276296   8.154518
 Mulliken atomic charges:
              1
     1  Ni   0.766947
     2  Ni   0.600200
     3  C   -0.404679
     4  C   -0.492968
     5  C   -0.404679
     6  O   -0.143257
     7  O   -0.171878
     8  O   -0.171878
     9  C   -0.429750
    10  O   -0.148057
 Sum of Mulliken atomic charges =  -1.00000
 Mulliken charges with hydrogens summed into heavy atoms:
              1
     1  Ni   0.766947
     2  Ni   0.600200
     3  C   -0.404679
     4  C   -0.492968
     5  C   -0.404679
     6  O   -0.143257
     7  O   -0.171878
     8  O   -0.171878
     9  C   -0.429750
    10  O   -0.148057
 Sum of Mulliken charges with hydrogens summed into heavy atoms =  -1.00000
          Atomic-Atomic Spin Densities.
              1          2          3          4          5          6
     1  Ni  -0.139977   0.101278   0.050349   0.122813   0.050349  -0.022219
     2  Ni   0.101278  -0.156301  -0.000796   0.051409  -0.000796  -0.002933
     3  C    0.050349  -0.000796   0.068723   0.060763  -0.036615  -0.002774
     4  C    0.122813   0.051409   0.060763  -0.159736   0.060763  -0.029790
     5  C    0.050349  -0.000796  -0.036615   0.060763   0.068723  -0.002774
     6  O   -0.022219  -0.002933  -0.002774  -0.029790  -0.002774   0.121320
     7  O   -0.013160  -0.009146   0.003613  -0.004789  -0.049464   0.000210
     8  O   -0.013160  -0.009146  -0.049464  -0.004789   0.003613   0.000210
     9  C    0.025297   0.121130   0.058142   0.000047   0.058142  -0.000106
    10  O   -0.002001  -0.017558  -0.001998  -0.000032  -0.001998   0.000000
              7          8          9         10
     1  Ni  -0.013160  -0.013160   0.025297  -0.002001
     2  Ni  -0.009146  -0.009146   0.121130  -0.017558
     3  C    0.003613  -0.049464   0.058142  -0.001998
     4  C   -0.004789  -0.004789   0.000047  -0.000032
     5  C   -0.049464   0.003613   0.058142  -0.001998
     6  O    0.000210   0.000210  -0.000106   0.000000
     7  O    0.166692  -0.000101  -0.007710   0.000293
     8  O   -0.000101   0.166692  -0.007710   0.000293
     9  C   -0.007710  -0.007710  -0.140724  -0.023090
    10  O    0.000293   0.000293  -0.023090   0.095394
 Mulliken atomic spin densities:
              1
     1  Ni   0.159571
     2  Ni   0.077141
     3  C    0.149944
     4  C    0.096659
     5  C    0.149944
     6  O    0.061143
     7  O    0.086437
     8  O    0.086437
     9  C    0.083418
    10  O    0.049306
 Sum of Mulliken atomic spin densities =   1.00000
 Electronic spatial extent (au):  <R**2>=           2302.5918
 Charge=             -1.0000 electrons
 Dipole moment (field-independent basis, Debye):
    X=              0.0000    Y=              0.0000    Z=              0.1106  Tot=              0.1106
 Quadrupole moment (field-independent basis, Debye-Ang):
   XX=            -76.2045   YY=            -89.7164   ZZ=           -109.3124
   XY=              0.0000   XZ=              0.0000   YZ=              0.0000
 Traceless Quadrupole moment (field-independent basis, Debye-Ang):
   XX=             15.5399   YY=              2.0280   ZZ=            -17.5680
   XY=              0.0000   XZ=              0.0000   YZ=              0.0000
 Octapole moment (field-independent basis, Debye-Ang**2):
  XXX=              0.0000  YYY=              0.0000  ZZZ=              4.8326  XYY=              0.0000
  XXY=              0.0000  XXZ=              1.0511  XZZ=              0.0000  YZZ=              0.0000
  YYZ=             -2.0627  XYZ=              0.0000
 Hexadecapole moment (field-independent basis, Debye-Ang**3):
 XXXX=           -106.1343 YYYY=           -888.6654 ZZZZ=          -2673.9228 XXXY=              0.0000
 XXXZ=              0.0000 YYYX=              0.0000 YYYZ=              0.0000 ZZZX=              0.0000
 ZZZY=              0.0000 XXYY=           -137.9689 XXZZ=           -350.3664 YYZZ=           -448.6275
 XXYZ=              0.0000 YYXZ=              0.0000 ZZXY=              0.0000
 N-N= 1.022051206693D+03 E-N=-1.549219823844D+04  KE= 5.199709897404D+03
 Symmetry A1   KE= 3.859225816993D+03
 Symmetry A2   KE= 5.404615575005D+01
 Symmetry B1   KE= 5.659054452324D+02
 Symmetry B2   KE= 7.205324794283D+02
                          Isotropic Fermi Contact Couplings
        Atom                 a.u.       MegaHertz       Gauss      10(-4) cm-1
     1  Ni(61)             0.01749      -6.99810      -2.49710      -2.33431
     2  Ni(61)             0.03335     -13.34312      -4.76116      -4.45078
     3  C(13)             -0.01054     -11.84750      -4.22748      -3.95190
     4  C(13)             -0.00824      -9.26526      -3.30607      -3.09056
     5  C(13)             -0.01054     -11.84750      -4.22748      -3.95190
     6  O(17)              0.00528      -3.20049      -1.14201      -1.06757
     7  O(17)              0.00937      -5.68116      -2.02718      -1.89503
     8  O(17)              0.00937      -5.68116      -2.02718      -1.89503
     9  C(13)             -0.00497      -5.58507      -1.99289      -1.86298
    10  O(17)              0.00427      -2.58884      -0.92376      -0.86354
 --------------------------------------------------------
       Center         ----  Spin Dipole Couplings  ----
                      3XX-RR        3YY-RR        3ZZ-RR
 --------------------------------------------------------
     1   Atom        0.608604     -0.252934     -0.355670
     2   Atom        0.344099     -0.037041     -0.307058
     3   Atom        0.138021     -0.071021     -0.067000
     4   Atom        0.115913     -0.057253     -0.058660
     5   Atom        0.138021     -0.071021     -0.067000
     6   Atom        0.307134     -0.140434     -0.166701
     7   Atom        0.439475     -0.236473     -0.203002
     8   Atom        0.439475     -0.236473     -0.203002
     9   Atom        0.101109     -0.049578     -0.051531
    10   Atom        0.248973     -0.117719     -0.131254
 --------------------------------------------------------
                        XY            XZ            YZ
 --------------------------------------------------------
     1   Atom        0.000000      0.000000      0.000000
     2   Atom        0.000000      0.000000      0.000000
     3   Atom        0.000000      0.000000      0.001782
     4   Atom        0.000000      0.000000      0.000000
     5   Atom        0.000000      0.000000     -0.001782
     6   Atom        0.000000      0.000000      0.000000
     7   Atom        0.000000      0.000000      0.004884
     8   Atom        0.000000      0.000000     -0.004884
     9   Atom        0.000000      0.000000      0.000000
    10   Atom        0.000000      0.000000      0.000000
 --------------------------------------------------------


 ---------------------------------------------------------------------------------
              Anisotropic Spin Dipole Couplings in Principal Axis System
 ---------------------------------------------------------------------------------

       Atom             a.u.   MegaHertz   Gauss  10(-4) cm-1        Axes

              Baa    -0.3557    16.987     6.062     5.666  0.0000  0.0000  1.0000
     1 Ni(61) Bbb    -0.2529    12.081     4.311     4.030  0.0000  1.0000  0.0000
              Bcc     0.6086   -29.068   -10.372    -9.696  1.0000  0.0000  0.0000
 
              Baa    -0.3071    14.666     5.233     4.892  0.0000  0.0000  1.0000
     2 Ni(61) Bbb    -0.0370     1.769     0.631     0.590  0.0000  1.0000  0.0000
              Bcc     0.3441   -16.435    -5.864    -5.482  1.0000  0.0000  0.0000
 
              Baa    -0.0717    -9.621    -3.433    -3.209  0.0000  0.9350 -0.3547
     3 C(13)  Bbb    -0.0663    -8.900    -3.176    -2.969  0.0000  0.3547  0.9350
              Bcc     0.1380    18.521     6.609     6.178  1.0000  0.0000  0.0000
 
              Baa    -0.0587    -7.872    -2.809    -2.626  0.0000  0.0000  1.0000
     4 C(13)  Bbb    -0.0573    -7.683    -2.741    -2.563  0.0000  1.0000  0.0000
              Bcc     0.1159    15.554     5.550     5.188  1.0000  0.0000  0.0000
 
              Baa    -0.0717    -9.621    -3.433    -3.209  0.0000  0.9350  0.3547
     5 C(13)  Bbb    -0.0663    -8.900    -3.176    -2.969  0.0000 -0.3547  0.9350
              Bcc     0.1380    18.521     6.609     6.178  1.0000  0.0000  0.0000
 
              Baa    -0.1667    12.062     4.304     4.024  0.0000  0.0000  1.0000
     6 O(17)  Bbb    -0.1404    10.162     3.626     3.390  0.0000  1.0000  0.0000
              Bcc     0.3071   -22.224    -7.930    -7.413  1.0000  0.0000  0.0000
 
              Baa    -0.2372    17.162     6.124     5.724  0.0000  0.9899 -0.1415
     7 O(17)  Bbb    -0.2023    14.639     5.223     4.883  0.0000  0.1415  0.9899
              Bcc     0.4395   -31.800   -11.347   -10.607  1.0000  0.0000  0.0000
 
              Baa    -0.2372    17.162     6.124     5.724  0.0000  0.9899  0.1415
     8 O(17)  Bbb    -0.2023    14.639     5.223     4.883  0.0000 -0.1415  0.9899
              Bcc     0.4395   -31.800   -11.347   -10.607  1.0000  0.0000  0.0000
 
              Baa    -0.0515    -6.915    -2.467    -2.307  0.0000  0.0000  1.0000
     9 C(13)  Bbb    -0.0496    -6.653    -2.374    -2.219  0.0000  1.0000  0.0000
              Bcc     0.1011    13.568     4.841     4.526  1.0000  0.0000  0.0000
 
              Baa    -0.1313     9.497     3.389     3.168  0.0000  0.0000  1.0000
    10 O(17)  Bbb    -0.1177     8.518     3.039     2.841  0.0000  1.0000  0.0000
              Bcc     0.2490   -18.016    -6.428    -6.009  1.0000  0.0000  0.0000
 

 ---------------------------------------------------------------------------------

 ******************************Gaussian NBO Version 3.1******************************
             N A T U R A L   A T O M I C   O R B I T A L   A N D
          N A T U R A L   B O N D   O R B I T A L   A N A L Y S I S
 ******************************Gaussian NBO Version 3.1******************************

       /RESON  / : Allow strongly delocalized NBO set
       /BNDIDX / : Print bond indices based on the NAO density matrix

 Analyzing the SCF density

 Job title: Title Card Required                                             

 Storage needed:    257350 in NPA,    342090 in NBO (  52428452 available)


 NATURAL POPULATIONS:  Natural atomic orbital occupancies 
                                                          
   NAO  Atom  No  lang   Type(AO)    Occupancy
 --------------------------------------------
     1   Ni    1  S      Cor( 1S)     2.00000
     2   Ni    1  S      Cor( 2S)     2.00000
     3   Ni    1  S      Cor( 3S)     1.99090
     4   Ni    1  S      Val( 4S)     0.43549
     5   Ni    1  S      Ryd( 5S)     0.00111
     6   Ni    1  S      Ryd( 6S)     0.00013
     7   Ni    1  S      Ryd( 7S)     0.00008
     8   Ni    1  S      Ryd( 8S)     0.00000
     9   Ni    1  S      Ryd(10S)     0.00000
    10   Ni    1  S      Ryd( 9S)     0.00000
    11   Ni    1  px     Cor( 2p)     2.00000
    12   Ni    1  px     Cor( 3p)     1.99776
    13   Ni    1  px     Val( 4p)     0.24259
    14   Ni    1  px     Ryd( 5p)     0.00112
    15   Ni    1  px     Ryd( 6p)     0.00010
    16   Ni    1  px     Ryd( 7p)     0.00001
    17   Ni    1  px     Ryd( 8p)     0.00000
    18   Ni    1  py     Cor( 2p)     2.00000
    19   Ni    1  py     Cor( 3p)     1.99750
    20   Ni    1  py     Val( 4p)     0.36885
    21   Ni    1  py     Ryd( 5p)     0.00022
    22   Ni    1  py     Ryd( 6p)     0.00013
    23   Ni    1  py     Ryd( 7p)     0.00001
    24   Ni    1  py     Ryd( 8p)     0.00000
    25   Ni    1  pz     Cor( 2p)     2.00000
    26   Ni    1  pz     Cor( 3p)     1.99648
    27   Ni    1  pz     Val( 4p)     0.40668
    28   Ni    1  pz     Ryd( 5p)     0.00070
    29   Ni    1  pz     Ryd( 6p)     0.00067
    30   Ni    1  pz     Ryd( 7p)     0.00002
    31   Ni    1  pz     Ryd( 8p)     0.00000
    32   Ni    1  dxy    Val( 3d)     1.90380
    33   Ni    1  dxy    Ryd( 4d)     0.00270
    34   Ni    1  dxy    Ryd( 5d)     0.00004
    35   Ni    1  dxy    Ryd( 6d)     0.00000
    36   Ni    1  dxz    Val( 3d)     1.84996
    37   Ni    1  dxz    Ryd( 4d)     0.00169
    38   Ni    1  dxz    Ryd( 5d)     0.00015
    39   Ni    1  dxz    Ryd( 6d)     0.00001
    40   Ni    1  dyz    Val( 3d)     1.80546
    41   Ni    1  dyz    Ryd( 4d)     0.00221
    42   Ni    1  dyz    Ryd( 5d)     0.00009
    43   Ni    1  dyz    Ryd( 6d)     0.00003
    44   Ni    1  dx2y2  Val( 3d)     1.87780
    45   Ni    1  dx2y2  Ryd( 4d)     0.00143
    46   Ni    1  dx2y2  Ryd( 5d)     0.00012
    47   Ni    1  dx2y2  Ryd( 6d)     0.00001
    48   Ni    1  dz2    Val( 3d)     1.77377
    49   Ni    1  dz2    Ryd( 4d)     0.00633
    50   Ni    1  dz2    Ryd( 5d)     0.00014
    51   Ni    1  dz2    Ryd( 6d)     0.00003
    52   Ni    1  f(0)   Ryd( 4f)     0.00005
    53   Ni    1  f(C1)  Ryd( 4f)     0.00004
    54   Ni    1  f(S1)  Ryd( 4f)     0.00003
    55   Ni    1  f(C2)  Ryd( 4f)     0.00005
    56   Ni    1  f(S2)  Ryd( 4f)     0.00002
    57   Ni    1  f(C3)  Ryd( 4f)     0.00002
    58   Ni    1  f(S3)  Ryd( 4f)     0.00002

    59   Ni    2  S      Cor( 1S)     2.00000
    60   Ni    2  S      Cor( 2S)     2.00000
    61   Ni    2  S      Cor( 3S)     1.99246
    62   Ni    2  S      Val( 4S)     0.47276
    63   Ni    2  S      Ryd( 5S)     0.00118
    64   Ni    2  S      Ryd( 6S)     0.00014
    65   Ni    2  S      Ryd( 7S)     0.00009
    66   Ni    2  S      Ryd( 8S)     0.00000
    67   Ni    2  S      Ryd(10S)     0.00000
    68   Ni    2  S      Ryd( 9S)     0.00000
    69   Ni    2  px     Cor( 2p)     2.00000
    70   Ni    2  px     Cor( 3p)     1.99878
    71   Ni    2  px     Val( 4p)     0.15557
    72   Ni    2  px     Ryd( 6p)     0.00018
    73   Ni    2  px     Ryd( 5p)     0.00020
    74   Ni    2  px     Ryd( 7p)     0.00001
    75   Ni    2  px     Ryd( 8p)     0.00000
    76   Ni    2  py     Cor( 2p)     2.00000
    77   Ni    2  py     Cor( 3p)     1.99689
    78   Ni    2  py     Val( 4p)     0.15607
    79   Ni    2  py     Ryd( 5p)     0.00021
    80   Ni    2  py     Ryd( 6p)     0.00006
    81   Ni    2  py     Ryd( 7p)     0.00001
    82   Ni    2  py     Ryd( 8p)     0.00000
    83   Ni    2  pz     Cor( 2p)     2.00000
    84   Ni    2  pz     Cor( 3p)     1.99589
    85   Ni    2  pz     Val( 4p)     0.27973
    86   Ni    2  pz     Ryd( 5p)     0.00090
    87   Ni    2  pz     Ryd( 6p)     0.00017
    88   Ni    2  pz     Ryd( 7p)     0.00001
    89   Ni    2  pz     Ryd( 8p)     0.00000
    90   Ni    2  dxy    Val( 3d)     1.95241
    91   Ni    2  dxy    Ryd( 4d)     0.00271
    92   Ni    2  dxy    Ryd( 5d)     0.00004
    93   Ni    2  dxy    Ryd( 6d)     0.00000
    94   Ni    2  dxz    Val( 3d)     1.79121
    95   Ni    2  dxz    Ryd( 4d)     0.00167
    96   Ni    2  dxz    Ryd( 5d)     0.00016
    97   Ni    2  dxz    Ryd( 6d)     0.00001
    98   Ni    2  dyz    Val( 3d)     1.73564
    99   Ni    2  dyz    Ryd( 4d)     0.00240
   100   Ni    2  dyz    Ryd( 5d)     0.00015
   101   Ni    2  dyz    Ryd( 6d)     0.00001
   102   Ni    2  dx2y2  Val( 3d)     1.94078
   103   Ni    2  dx2y2  Ryd( 4d)     0.00173
   104   Ni    2  dx2y2  Ryd( 5d)     0.00008
   105   Ni    2  dx2y2  Ryd( 6d)     0.00001
   106   Ni    2  dz2    Val( 3d)     1.85815
   107   Ni    2  dz2    Ryd( 4d)     0.00343
   108   Ni    2  dz2    Ryd( 5d)     0.00012
   109   Ni    2  dz2    Ryd( 6d)     0.00002
   110   Ni    2  f(0)   Ryd( 4f)     0.00004
   111   Ni    2  f(C1)  Ryd( 4f)     0.00005
   112   Ni    2  f(S1)  Ryd( 4f)     0.00004
   113   Ni    2  f(C2)  Ryd( 4f)     0.00004
   114   Ni    2  f(S2)  Ryd( 4f)     0.00001
   115   Ni    2  f(C3)  Ryd( 4f)     0.00001
   116   Ni    2  f(S3)  Ryd( 4f)     0.00001

   117    C    3  S      Cor( 1S)     1.99923
   118    C    3  S      Val( 2S)     1.19049
   119    C    3  S      Ryd( 3S)     0.03606
   120    C    3  S      Ryd( 4S)     0.00008
   121    C    3  S      Ryd( 5S)     0.00001
   122    C    3  px     Val( 2p)     0.70853
   123    C    3  px     Ryd( 3p)     0.00571
   124    C    3  px     Ryd( 4p)     0.00026
   125    C    3  px     Ryd( 5p)     0.00007
   126    C    3  py     Val( 2p)     0.82488
   127    C    3  py     Ryd( 3p)     0.01875
   128    C    3  py     Ryd( 4p)     0.00080
   129    C    3  py     Ryd( 5p)     0.00013
   130    C    3  pz     Val( 2p)     0.70676
   131    C    3  pz     Ryd( 3p)     0.00473
   132    C    3  pz     Ryd( 4p)     0.00027
   133    C    3  pz     Ryd( 5p)     0.00012
   134    C    3  dxy    Ryd( 3d)     0.00401
   135    C    3  dxz    Ryd( 3d)     0.00048
   136    C    3  dyz    Ryd( 3d)     0.00296
   137    C    3  dx2y2  Ryd( 3d)     0.00123
   138    C    3  dz2    Ryd( 3d)     0.00147

   139    C    4  S      Cor( 1S)     1.99900
   140    C    4  S      Val( 2S)     1.23962
   141    C    4  S      Ryd( 3S)     0.04445
   142    C    4  S      Ryd( 4S)     0.00004
   143    C    4  S      Ryd( 5S)     0.00001
   144    C    4  px     Val( 2p)     0.64525
   145    C    4  px     Ryd( 3p)     0.00386
   146    C    4  px     Ryd( 4p)     0.00018
   147    C    4  px     Ryd( 5p)     0.00009
   148    C    4  py     Val( 2p)     0.60738
   149    C    4  py     Ryd( 3p)     0.00122
   150    C    4  py     Ryd( 4p)     0.00023
   151    C    4  py     Ryd( 5p)     0.00008
   152    C    4  pz     Val( 2p)     0.84747
   153    C    4  pz     Ryd( 3p)     0.01666
   154    C    4  pz     Ryd( 4p)     0.00044
   155    C    4  pz     Ryd( 5p)     0.00025
   156    C    4  dxy    Ryd( 3d)     0.00006
   157    C    4  dxz    Ryd( 3d)     0.00419
   158    C    4  dyz    Ryd( 3d)     0.00425
   159    C    4  dx2y2  Ryd( 3d)     0.00006
   160    C    4  dz2    Ryd( 3d)     0.00132

   161    C    5  S      Cor( 1S)     1.99923
   162    C    5  S      Val( 2S)     1.19049
   163    C    5  S      Ryd( 3S)     0.03606
   164    C    5  S      Ryd( 4S)     0.00008
   165    C    5  S      Ryd( 5S)     0.00001
   166    C    5  px     Val( 2p)     0.70853
   167    C    5  px     Ryd( 3p)     0.00571
   168    C    5  px     Ryd( 4p)     0.00026
   169    C    5  px     Ryd( 5p)     0.00007
   170    C    5  py     Val( 2p)     0.82488
   171    C    5  py     Ryd( 3p)     0.01875
   172    C    5  py     Ryd( 4p)     0.00080
   173    C    5  py     Ryd( 5p)     0.00013
   174    C    5  pz     Val( 2p)     0.70676
   175    C    5  pz     Ryd( 3p)     0.00473
   176    C    5  pz     Ryd( 4p)     0.00027
   177    C    5  pz     Ryd( 5p)     0.00012
   178    C    5  dxy    Ryd( 3d)     0.00401
   179    C    5  dxz    Ryd( 3d)     0.00048
   180    C    5  dyz    Ryd( 3d)     0.00296
   181    C    5  dx2y2  Ryd( 3d)     0.00123
   182    C    5  dz2    Ryd( 3d)     0.00147

   183    O    6  S      Cor( 1S)     1.99973
   184    O    6  S      Val( 2S)     1.70316
   185    O    6  S      Ryd( 3S)     0.00460
   186    O    6  S      Ryd( 4S)     0.00003
   187    O    6  S      Ryd( 5S)     0.00000
   188    O    6  px     Val( 2p)     1.57959
   189    O    6  px     Ryd( 3p)     0.00213
   190    O    6  px     Ryd( 4p)     0.00002
   191    O    6  px     Ryd( 5p)     0.00001
   192    O    6  py     Val( 2p)     1.58082
   193    O    6  py     Ryd( 3p)     0.00174
   194    O    6  py     Ryd( 4p)     0.00003
   195    O    6  py     Ryd( 5p)     0.00001
   196    O    6  pz     Val( 2p)     1.65819
   197    O    6  pz     Ryd( 3p)     0.00058
   198    O    6  pz     Ryd( 4p)     0.00041
   199    O    6  pz     Ryd( 5p)     0.00009
   200    O    6  dxy    Ryd( 3d)     0.00000
   201    O    6  dxz    Ryd( 3d)     0.00185
   202    O    6  dyz    Ryd( 3d)     0.00187
   203    O    6  dx2y2  Ryd( 3d)     0.00000
   204    O    6  dz2    Ryd( 3d)     0.00213

   205    O    7  S      Cor( 1S)     1.99974
   206    O    7  S      Val( 2S)     1.69440
   207    O    7  S      Ryd( 3S)     0.00309
   208    O    7  S      Ryd( 4S)     0.00004
   209    O    7  S      Ryd( 5S)     0.00000
   210    O    7  px     Val( 2p)     1.57855
   211    O    7  px     Ryd( 3p)     0.00336
   212    O    7  px     Ryd( 5p)     0.00001
   213    O    7  px     Ryd( 4p)     0.00001
   214    O    7  py     Val( 2p)     1.65468
   215    O    7  py     Ryd( 3p)     0.00123
   216    O    7  py     Ryd( 4p)     0.00039
   217    O    7  py     Ryd( 5p)     0.00008
   218    O    7  pz     Val( 2p)     1.55655
   219    O    7  pz     Ryd( 3p)     0.00352
   220    O    7  pz     Ryd( 4p)     0.00010
   221    O    7  pz     Ryd( 5p)     0.00001
   222    O    7  dxy    Ryd( 3d)     0.00171
   223    O    7  dxz    Ryd( 3d)     0.00010
   224    O    7  dyz    Ryd( 3d)     0.00174
   225    O    7  dx2y2  Ryd( 3d)     0.00154
   226    O    7  dz2    Ryd( 3d)     0.00067

   227    O    8  S      Cor( 1S)     1.99974
   228    O    8  S      Val( 2S)     1.69440
   229    O    8  S      Ryd( 3S)     0.00309
   230    O    8  S      Ryd( 4S)     0.00004
   231    O    8  S      Ryd( 5S)     0.00000
   232    O    8  px     Val( 2p)     1.57855
   233    O    8  px     Ryd( 3p)     0.00336
   234    O    8  px     Ryd( 5p)     0.00001
   235    O    8  px     Ryd( 4p)     0.00001
   236    O    8  py     Val( 2p)     1.65468
   237    O    8  py     Ryd( 3p)     0.00123
   238    O    8  py     Ryd( 4p)     0.00039
   239    O    8  py     Ryd( 5p)     0.00008
   240    O    8  pz     Val( 2p)     1.55655
   241    O    8  pz     Ryd( 3p)     0.00352
   242    O    8  pz     Ryd( 4p)     0.00010
   243    O    8  pz     Ryd( 5p)     0.00001
   244    O    8  dxy    Ryd( 3d)     0.00171
   245    O    8  dxz    Ryd( 3d)     0.00010
   246    O    8  dyz    Ryd( 3d)     0.00174
   247    O    8  dx2y2  Ryd( 3d)     0.00154
   248    O    8  dz2    Ryd( 3d)     0.00067

   249    C    9  S      Cor( 1S)     1.99907
   250    C    9  S      Val( 2S)     1.30009
   251    C    9  S      Ryd( 3S)     0.03878
   252    C    9  S      Ryd( 4S)     0.00010
   253    C    9  S      Ryd( 5S)     0.00001
   254    C    9  px     Val( 2p)     0.65078
   255    C    9  px     Ryd( 3p)     0.00211
   256    C    9  px     Ryd( 4p)     0.00012
   257    C    9  px     Ryd( 5p)     0.00011
   258    C    9  py     Val( 2p)     0.59519
   259    C    9  py     Ryd( 3p)     0.00081
   260    C    9  py     Ryd( 4p)     0.00011
   261    C    9  py     Ryd( 5p)     0.00004
   262    C    9  pz     Val( 2p)     0.87934
   263    C    9  pz     Ryd( 3p)     0.01722
   264    C    9  pz     Ryd( 4p)     0.00055
   265    C    9  pz     Ryd( 5p)     0.00022
   266    C    9  dxy    Ryd( 3d)     0.00008
   267    C    9  dxz    Ryd( 3d)     0.00440
   268    C    9  dyz    Ryd( 3d)     0.00421
   269    C    9  dx2y2  Ryd( 3d)     0.00008
   270    C    9  dz2    Ryd( 3d)     0.00138

   271    O   10  S      Cor( 1S)     1.99974
   272    O   10  S      Val( 2S)     1.70536
   273    O   10  S      Ryd( 3S)     0.00225
   274    O   10  S      Ryd( 4S)     0.00002
   275    O   10  S      Ryd( 5S)     0.00000
   276    O   10  px     Val( 2p)     1.59267
   277    O   10  px     Ryd( 3p)     0.00202
   278    O   10  px     Ryd( 4p)     0.00002
   279    O   10  px     Ryd( 5p)     0.00001
   280    O   10  py     Val( 2p)     1.56147
   281    O   10  py     Ryd( 3p)     0.00119
   282    O   10  py     Ryd( 4p)     0.00002
   283    O   10  py     Ryd( 5p)     0.00001
   284    O   10  pz     Val( 2p)     1.65439
   285    O   10  pz     Ryd( 3p)     0.00087
   286    O   10  pz     Ryd( 4p)     0.00034
   287    O   10  pz     Ryd( 5p)     0.00009
   288    O   10  dxy    Ryd( 3d)     0.00000
   289    O   10  dxz    Ryd( 3d)     0.00184
   290    O   10  dyz    Ryd( 3d)     0.00185
   291    O   10  dx2y2  Ryd( 3d)     0.00000
   292    O   10  dz2    Ryd( 3d)     0.00209

 WARNING:  4 low occupancy (<1.9990e) core orbitals found on Ni    1
           4 low occupancy (<1.9990e) core orbitals found on Ni    2
           1 low occupancy (<1.9990e) core orbital  found on  C    4


 Summary of Natural Population Analysis:                  
                                                          
                                       Natural Population 
                Natural  -----------------------------------------------
    Atom  No    Charge         Core      Valence    Rydberg      Total
 -----------------------------------------------------------------------
     Ni    1   -0.66654     17.98263    10.66440    0.01951    28.66654
     Ni    2   -0.34223     17.98402    10.34232    0.01590    28.34223
      C    3    0.49299      1.99923     3.43066    0.07713     5.50701
      C    4    0.58389      1.99900     3.33972    0.07739     5.41611
      C    5    0.49299      1.99923     3.43066    0.07713     5.50701
      O    6   -0.53699      1.99973     6.52176    0.01549     8.53699
      O    7   -0.50153      1.99974     6.48419    0.01760     8.50153
      O    8   -0.50153      1.99974     6.48419    0.01760     8.50153
      C    9    0.50521      1.99907     3.42540    0.07032     5.49479
      O   10   -0.52626      1.99974     6.51388    0.01264     8.52626
 =======================================================================
   * Total *   -1.00000     51.96214    60.63717    0.40070   113.00000

                                 Natural Population      
 --------------------------------------------------------
   Core                      51.96214 ( 99.9272% of  52)
   Valence                   60.63717 ( 99.4052% of  61)
   Natural Minimal Basis    112.59930 ( 99.6454% of 113)
   Natural Rydberg Basis      0.40070 (  0.3546% of 113)
 --------------------------------------------------------

    Atom  No          Natural Electron Configuration
 ----------------------------------------------------------------------------
     Ni    1      [core]4S( 0.44)3d( 9.21)4p( 1.02)4d( 0.01)
     Ni    2      [core]4S( 0.47)3d( 9.28)4p( 0.59)4d( 0.01)
      C    3      [core]2S( 1.19)2p( 2.24)3S( 0.04)3p( 0.03)3d( 0.01)
      C    4      [core]2S( 1.24)2p( 2.10)3S( 0.04)3p( 0.02)3d( 0.01)
      C    5      [core]2S( 1.19)2p( 2.24)3S( 0.04)3p( 0.03)3d( 0.01)
      O    6      [core]2S( 1.70)2p( 4.82)3d( 0.01)
      O    7      [core]2S( 1.69)2p( 4.79)3p( 0.01)3d( 0.01)
      O    8      [core]2S( 1.69)2p( 4.79)3p( 0.01)3d( 0.01)
      C    9      [core]2S( 1.30)2p( 2.13)3S( 0.04)3p( 0.02)3d( 0.01)
      O   10      [core]2S( 1.71)2p( 4.81)3d( 0.01)


 Wiberg bond index matrix in the NAO basis:                                    

     Atom    1       2       3       4       5       6       7       8       9
     ---- ------  ------  ------  ------  ------  ------  ------  ------  ------
   1. Ni  0.0000  0.3102  0.8219  1.1144  0.8219  0.1230  0.0892  0.0892  0.0352
   2. Ni  0.3102  0.0000  0.4887  0.0347  0.4887  0.0097  0.0838  0.0838  1.0890
   3.  C  0.8219  0.4887  0.0000  0.0548  0.0456  0.0111  0.0178  1.9775  0.0244
   4.  C  1.1144  0.0347  0.0548  0.0000  0.0548  2.0204  0.0107  0.0107  0.0052
   5.  C  0.8219  0.4887  0.0456  0.0548  0.0000  0.0111  1.9775  0.0178  0.0244
   6.  O  0.1230  0.0097  0.0111  2.0204  0.0111  0.0000  0.0015  0.0015  0.0014
   7.  O  0.0892  0.0838  0.0178  0.0107  1.9775  0.0015  0.0000  0.0121  0.0090
   8.  O  0.0892  0.0838  1.9775  0.0107  0.0178  0.0015  0.0121  0.0000  0.0090
   9.  C  0.0352  1.0890  0.0244  0.0052  0.0244  0.0014  0.0090  0.0090  0.0000
  10.  O  0.0090  0.1364  0.0072  0.0016  0.0072  0.0006  0.0052  0.0052  2.0247

     Atom   10
     ---- ------
   1. Ni  0.0090
   2. Ni  0.1364
   3.  C  0.0072
   4.  C  0.0016
   5.  C  0.0072
   6.  O  0.0006
   7.  O  0.0052
   8.  O  0.0052
   9.  C  2.0247
  10.  O  0.0000


 Wiberg bond index, Totals by atom:                                            

     Atom    1
     ---- ------
   1. Ni  3.4138
   2. Ni  2.7250
   3.  C  3.4489
   4.  C  3.3073
   5.  C  3.4489
   6.  O  2.1802
   7.  O  2.2067
   8.  O  2.2067
   9.  C  3.2223
  10.  O  2.1972


 Atom-atom overlap-weighted NAO bond order:                                    

     Atom    1       2       3       4       5       6       7       8       9
     ---- ------  ------  ------  ------  ------  ------  ------  ------  ------
   1. Ni  0.0000  0.4549  0.9154  1.0777  0.9154 -0.0253 -0.0225 -0.0225  0.0085
   2. Ni  0.4549  0.0000  0.5970  0.0047  0.5970 -0.0016 -0.0187 -0.0187  0.9921
   3.  C  0.9154  0.5970  0.0000  0.0641  0.0504 -0.0027 -0.0026  1.4302  0.0262
   4.  C  1.0777  0.0047  0.0641  0.0000  0.0641  1.4611 -0.0033 -0.0033  0.0004
   5.  C  0.9154  0.5970  0.0504  0.0641  0.0000 -0.0027  1.4302 -0.0026  0.0262
   6.  O -0.0253 -0.0016 -0.0027  1.4611 -0.0027  0.0000  0.0000  0.0000  0.0000
   7.  O -0.0225 -0.0187 -0.0026 -0.0033  1.4302  0.0000  0.0000  0.0002  0.0003
   8.  O -0.0225 -0.0187  1.4302 -0.0033 -0.0026  0.0000  0.0002  0.0000  0.0003
   9.  C  0.0085  0.9921  0.0262  0.0004  0.0262  0.0000  0.0003  0.0003  0.0000
  10.  O -0.0017 -0.0304 -0.0004  0.0000 -0.0004  0.0000 -0.0005 -0.0005  1.4620

     Atom   10
     ---- ------
   1. Ni -0.0017
   2. Ni -0.0304
   3.  C -0.0004
   4.  C  0.0000
   5.  C -0.0004
   6.  O  0.0000
   7.  O -0.0005
   8.  O -0.0005
   9.  C  1.4620
  10.  O  0.0000


 Atom-atom overlap-weighted NAO bond order, Totals by atom:                    

     Atom    1
     ---- ------
   1. Ni  3.2999
   2. Ni  2.5763
   3.  C  3.0776
   4.  C  2.6656
   5.  C  3.0776
   6.  O  1.4286
   7.  O  1.3831
   8.  O  1.3831
   9.  C  2.5160
  10.  O  1.4281


 MO bond order:                                                                

     Atom    1       2       3       4       5       6       7       8       9
     ---- ------  ------  ------  ------  ------  ------  ------  ------  ------
   1. Ni  0.0000  1.1649  0.6394 -0.1518  0.9369  0.4995 -0.5001 -0.4974  0.1832
   2. Ni  1.1649  0.0000  0.1930 -0.0794 -0.2350 -0.0592  0.0784  0.3455  1.1412
   3.  C  0.6394  0.1930  0.0000 -0.0151  0.1517 -0.1129 -0.2757  1.5060  0.1994
   4.  C -0.1518 -0.0794 -0.0151  0.0000 -0.2718  0.9936  0.1210  0.0377  0.1331
   5.  C  0.9369 -0.2350  0.1517 -0.2718  0.0000  0.0877  1.5683 -0.1583 -0.0260
   6.  O  0.4995 -0.0592 -0.1129  0.9936  0.0877  0.0000 -0.0406 -0.0095 -0.0742
   7.  O -0.5001  0.0784 -0.2757  0.1210  1.5683 -0.0406  0.0000  0.1686 -0.1816
   8.  O -0.4974  0.3455  1.5060  0.0377 -0.1583 -0.0095  0.1686  0.0000 -0.0222
   9.  C  0.1832  1.1412  0.1994  0.1331 -0.0260 -0.0742 -0.1816 -0.0222  0.0000
  10.  O -0.1608 -0.4162 -0.0057 -0.0596 -0.0416  0.0401  0.1045 -0.0540  1.8362

     Atom   10
     ---- ------
   1. Ni -0.1608
   2. Ni -0.4162
   3.  C -0.0057
   4.  C -0.0596
   5.  C -0.0416
   6.  O  0.0401
   7.  O  0.1045
   8.  O -0.0540
   9.  C  1.8362
  10.  O  0.0000


 MO atomic valencies:                                                          

     Atom    1
     ---- ------
   1. Ni  2.1139
   2. Ni  2.1332
   3.  C  2.2802
   4.  C  0.7078
   5.  C  2.0120
   6.  O  1.3244
   7.  O  1.0429
   8.  O  1.3164
   9.  C  3.1891
  10.  O  1.2430


 ***************************************************
 *******         Alpha spin orbitals         *******
 ***************************************************


 NATURAL POPULATIONS:  Natural atomic orbital occupancies 
                                                          
   NAO  Atom  No  lang   Type(AO)    Occupancy      Energy
 ----------------------------------------------------------
     1   Ni    1  S      Cor( 1S)     1.00000    -299.29687
     2   Ni    1  S      Cor( 2S)     1.00000     -34.28452
     3   Ni    1  S      Cor( 3S)     0.99546      -5.38194
     4   Ni    1  S      Val( 4S)     0.22105       0.60665
     5   Ni    1  S      Ryd( 7S)     0.00058       1.83867
     6   Ni    1  S      Ryd( 5S)     0.00006       0.86846
     7   Ni    1  S      Ryd( 6S)     0.00004       1.42099
     8   Ni    1  S      Ryd( 8S)     0.00000     112.44774
     9   Ni    1  S      Ryd( 9S)     0.00000     340.01857
    10   Ni    1  S      Ryd(10S)     0.00000     581.00099
    11   Ni    1  px     Cor( 2p)     1.00000     -30.95854
    12   Ni    1  px     Cor( 3p)     0.99964      -2.49162
    13   Ni    1  px     Val( 4p)     0.23250       0.24489
    14   Ni    1  px     Ryd( 5p)     0.00101       0.64390
    15   Ni    1  px     Ryd( 6p)     0.00006       2.07796
    16   Ni    1  px     Ryd( 7p)     0.00001      12.35624
    17   Ni    1  px     Ryd( 8p)     0.00000      32.52962
    18   Ni    1  py     Cor( 2p)     1.00000     -30.97054
    19   Ni    1  py     Cor( 3p)     0.99875      -2.50523
    20   Ni    1  py     Val( 4p)     0.18563       0.38548
    21   Ni    1  py     Ryd( 5p)     0.00011       0.95105
    22   Ni    1  py     Ryd( 6p)     0.00006       2.08202
    23   Ni    1  py     Ryd( 7p)     0.00001      12.06304
    24   Ni    1  py     Ryd( 8p)     0.00000      32.49611
    25   Ni    1  pz     Cor( 2p)     1.00000     -30.97176
    26   Ni    1  pz     Cor( 3p)     0.99823      -2.50410
    27   Ni    1  pz     Val( 4p)     0.20417       0.55958
    28   Ni    1  pz     Ryd( 5p)     0.00034       0.95077
    29   Ni    1  pz     Ryd( 6p)     0.00034       2.23489
    30   Ni    1  pz     Ryd( 7p)     0.00001      12.04938
    31   Ni    1  pz     Ryd( 8p)     0.00000      32.48983
    32   Ni    1  dxy    Val( 3d)     0.94280      -0.10618
    33   Ni    1  dxy    Ryd( 4d)     0.00098       0.59787
    34   Ni    1  dxy    Ryd( 5d)     0.00001       1.80974
    35   Ni    1  dxy    Ryd( 6d)     0.00000       6.92222
    36   Ni    1  dxz    Val( 3d)     0.90996      -0.10521
    37   Ni    1  dxz    Ryd( 4d)     0.00073       0.82368
    38   Ni    1  dxz    Ryd( 5d)     0.00007       1.89643
    39   Ni    1  dxz    Ryd( 6d)     0.00000       6.97410
    40   Ni    1  dyz    Val( 3d)     0.89834      -0.12989
    41   Ni    1  dyz    Ryd( 4d)     0.00110       1.50728
    42   Ni    1  dyz    Ryd( 5d)     0.00005       2.27669
    43   Ni    1  dyz    Ryd( 6d)     0.00001       7.12205
    44   Ni    1  dx2y2  Val( 3d)     0.93630      -0.11088
    45   Ni    1  dx2y2  Ryd( 4d)     0.00051       1.22626
    46   Ni    1  dx2y2  Ryd( 5d)     0.00006       2.24283
    47   Ni    1  dx2y2  Ryd( 6d)     0.00001       7.05891
    48   Ni    1  dz2    Val( 3d)     0.88127      -0.12823
    49   Ni    1  dz2    Ryd( 5d)     0.00314       2.85801
    50   Ni    1  dz2    Ryd( 4d)     0.00007       2.48492
    51   Ni    1  dz2    Ryd( 6d)     0.00001       7.16109
    52   Ni    1  f(0)   Ryd( 4f)     0.00002       4.02946
    53   Ni    1  f(C1)  Ryd( 4f)     0.00003       3.76137
    54   Ni    1  f(S1)  Ryd( 4f)     0.00002       3.79351
    55   Ni    1  f(C2)  Ryd( 4f)     0.00002       3.91873
    56   Ni    1  f(S2)  Ryd( 4f)     0.00001       3.73847
    57   Ni    1  f(C3)  Ryd( 4f)     0.00002       3.74441
    58   Ni    1  f(S3)  Ryd( 4f)     0.00001       3.83876

    59   Ni    2  S      Cor( 1S)     1.00000    -299.27108
    60   Ni    2  S      Cor( 2S)     1.00000     -34.32567
    61   Ni    2  S      Cor( 3S)     0.99627      -5.31270
    62   Ni    2  S      Val( 5S)     0.23963       0.42371
    63   Ni    2  S      Ryd( 6S)     0.00061       1.87994
    64   Ni    2  S      Ryd( 7S)     0.00007       2.92451
    65   Ni    2  S      Ryd( 4S)     0.00004       0.32987
    66   Ni    2  S      Ryd( 8S)     0.00000     111.10187
    67   Ni    2  S      Ryd( 9S)     0.00000     290.64767
    68   Ni    2  S      Ryd(10S)     0.00000     631.23006
    69   Ni    2  px     Cor( 2p)     1.00000     -30.92975
    70   Ni    2  px     Cor( 3p)     0.99973      -2.47060
    71   Ni    2  px     Val( 4p)     0.14971       0.23844
    72   Ni    2  px     Ryd( 5p)     0.00010       1.39453
    73   Ni    2  px     Ryd( 6p)     0.00018       2.82026
    74   Ni    2  px     Ryd( 7p)     0.00000      11.22142
    75   Ni    2  px     Ryd( 8p)     0.00000      32.27839
    76   Ni    2  py     Cor( 2p)     1.00000     -30.93442
    77   Ni    2  py     Cor( 3p)     0.99844      -2.47692
    78   Ni    2  py     Val( 4p)     0.07748       0.36044
    79   Ni    2  py     Ryd( 5p)     0.00011       1.44248
    80   Ni    2  py     Ryd( 6p)     0.00003       2.76925
    81   Ni    2  py     Ryd( 7p)     0.00000      10.95122
    82   Ni    2  py     Ryd( 8p)     0.00000      32.26626
    83   Ni    2  pz     Cor( 2p)     1.00000     -30.94165
    84   Ni    2  pz     Cor( 3p)     0.99794      -2.48016
    85   Ni    2  pz     Val( 4p)     0.14048       0.71744
    86   Ni    2  pz     Ryd( 6p)     0.00046       2.04043
    87   Ni    2  pz     Ryd( 5p)     0.00008       2.03445
    88   Ni    2  pz     Ryd( 7p)     0.00001      11.05398
    89   Ni    2  pz     Ryd( 8p)     0.00000      32.23981
    90   Ni    2  dxy    Val( 3d)     0.97224      -0.08704
    91   Ni    2  dxy    Ryd( 4d)     0.00109       0.54236
    92   Ni    2  dxy    Ryd( 5d)     0.00002       1.78713
    93   Ni    2  dxy    Ryd( 6d)     0.00000       6.90934
    94   Ni    2  dxz    Val( 3d)     0.87387      -0.07907
    95   Ni    2  dxz    Ryd( 4d)     0.00084       0.85648
    96   Ni    2  dxz    Ryd( 5d)     0.00008       1.89376
    97   Ni    2  dxz    Ryd( 6d)     0.00000       6.98877
    98   Ni    2  dyz    Val( 3d)     0.86267      -0.09143
    99   Ni    2  dyz    Ryd( 4d)     0.00124       1.48871
   100   Ni    2  dyz    Ryd( 5d)     0.00008       2.09172
   101   Ni    2  dyz    Ryd( 6d)     0.00001       7.11258
   102   Ni    2  dx2y2  Val( 3d)     0.96960      -0.08885
   103   Ni    2  dx2y2  Ryd( 4d)     0.00069       0.79834
   104   Ni    2  dx2y2  Ryd( 5d)     0.00004       1.94818
   105   Ni    2  dx2y2  Ryd( 6d)     0.00000       7.00676
   106   Ni    2  dz2    Val( 3d)     0.92605      -0.11668
   107   Ni    2  dz2    Ryd( 5d)     0.00172       3.42469
   108   Ni    2  dz2    Ryd( 4d)     0.00006       2.64169
   109   Ni    2  dz2    Ryd( 6d)     0.00001       7.21048
   110   Ni    2  f(0)   Ryd( 4f)     0.00002       3.98774
   111   Ni    2  f(C1)  Ryd( 4f)     0.00003       3.77498
   112   Ni    2  f(S1)  Ryd( 4f)     0.00002       3.80654
   113   Ni    2  f(C2)  Ryd( 4f)     0.00002       3.81627
   114   Ni    2  f(S2)  Ryd( 4f)     0.00001       3.73671
   115   Ni    2  f(C3)  Ryd( 4f)     0.00000       3.74259
   116   Ni    2  f(S3)  Ryd( 4f)     0.00000       3.78609

   117    C    3  S      Cor( 1S)     0.99962      -9.99626
   118    C    3  S      Val( 2S)     0.59502      -0.17893
   119    C    3  S      Ryd( 3S)     0.01787       1.55714
   120    C    3  S      Ryd( 4S)     0.00004       2.28974
   121    C    3  S      Ryd( 5S)     0.00000      21.83513
   122    C    3  px     Val( 2p)     0.42100       0.01408
   123    C    3  px     Ryd( 4p)     0.00390       0.87144
   124    C    3  px     Ryd( 3p)     0.00015       0.57462
   125    C    3  px     Ryd( 5p)     0.00003       2.40269
   126    C    3  py     Val( 2p)     0.41148       0.11389
   127    C    3  py     Ryd( 4p)     0.00932       1.71380
   128    C    3  py     Ryd( 3p)     0.00039       0.69780
   129    C    3  py     Ryd( 5p)     0.00007       2.83969
   130    C    3  pz     Val( 2p)     0.35580       0.02381
   131    C    3  pz     Ryd( 4p)     0.00230       1.58734
   132    C    3  pz     Ryd( 3p)     0.00014       0.71557
   133    C    3  pz     Ryd( 5p)     0.00006       2.42560
   134    C    3  dxy    Ryd( 3d)     0.00206       1.78877
   135    C    3  dxz    Ryd( 3d)     0.00024       1.56882
   136    C    3  dyz    Ryd( 3d)     0.00148       2.31186
   137    C    3  dx2y2  Ryd( 3d)     0.00060       2.40398
   138    C    3  dz2    Ryd( 3d)     0.00072       1.90017

   139    C    4  S      Cor( 1S)     0.99950      -9.98994
   140    C    4  S      Val( 2S)     0.61923      -0.18712
   141    C    4  S      Ryd( 4S)     0.02203       1.58020
   142    C    4  S      Ryd( 3S)     0.00002       1.41731
   143    C    4  S      Ryd( 5S)     0.00001      22.82502
   144    C    4  px     Val( 2p)     0.37048       0.02627
   145    C    4  px     Ryd( 4p)     0.00262       0.98509
   146    C    4  px     Ryd( 3p)     0.00010       0.44582
   147    C    4  px     Ryd( 5p)     0.00006       2.38643
   148    C    4  py     Val( 2p)     0.30562       0.03785
   149    C    4  py     Ryd( 4p)     0.00058       1.06768
   150    C    4  py     Ryd( 3p)     0.00012       0.44558
   151    C    4  py     Ryd( 5p)     0.00004       2.38018
   152    C    4  pz     Val( 2p)     0.42326       0.11446
   153    C    4  pz     Ryd( 4p)     0.00830       2.24522
   154    C    4  pz     Ryd( 3p)     0.00022       0.59968
   155    C    4  pz     Ryd( 5p)     0.00012       3.22822
   156    C    4  dxy    Ryd( 3d)     0.00003       1.49071
   157    C    4  dxz    Ryd( 3d)     0.00216       1.89011
   158    C    4  dyz    Ryd( 3d)     0.00212       1.93730
   159    C    4  dx2y2  Ryd( 3d)     0.00003       1.58196
   160    C    4  dz2    Ryd( 3d)     0.00065       2.97780

   161    C    5  S      Cor( 1S)     0.99962      -9.99626
   162    C    5  S      Val( 2S)     0.59502      -0.17893
   163    C    5  S      Ryd( 3S)     0.01787       1.55714
   164    C    5  S      Ryd( 4S)     0.00004       2.28974
   165    C    5  S      Ryd( 5S)     0.00000      21.83514
   166    C    5  px     Val( 2p)     0.42100       0.01408
   167    C    5  px     Ryd( 4p)     0.00390       0.87144
   168    C    5  px     Ryd( 3p)     0.00015       0.57462
   169    C    5  px     Ryd( 5p)     0.00003       2.40269
   170    C    5  py     Val( 2p)     0.41148       0.11389
   171    C    5  py     Ryd( 4p)     0.00932       1.71380
   172    C    5  py     Ryd( 3p)     0.00039       0.69780
   173    C    5  py     Ryd( 5p)     0.00007       2.83969
   174    C    5  pz     Val( 2p)     0.35580       0.02381
   175    C    5  pz     Ryd( 4p)     0.00230       1.58734
   176    C    5  pz     Ryd( 3p)     0.00014       0.71557
   177    C    5  pz     Ryd( 5p)     0.00006       2.42560
   178    C    5  dxy    Ryd( 3d)     0.00206       1.78877
   179    C    5  dxz    Ryd( 3d)     0.00024       1.56882
   180    C    5  dyz    Ryd( 3d)     0.00148       2.31186
   181    C    5  dx2y2  Ryd( 3d)     0.00060       2.40398
   182    C    5  dz2    Ryd( 3d)     0.00072       1.90017

   183    O    6  S      Cor( 1S)     0.99987     -18.79186
   184    O    6  S      Val( 2S)     0.85219      -0.83502
   185    O    6  S      Ryd( 3S)     0.00223       1.07095
   186    O    6  S      Ryd( 4S)     0.00001       1.88574
   187    O    6  S      Ryd( 5S)     0.00000      49.28866
   188    O    6  px     Val( 2p)     0.81879      -0.19839
   189    O    6  px     Ryd( 3p)     0.00178       0.60418
   190    O    6  px     Ryd( 4p)     0.00001       1.24174
   191    O    6  px     Ryd( 5p)     0.00001       4.88591
   192    O    6  py     Val( 2p)     0.79233      -0.19135
   193    O    6  py     Ryd( 3p)     0.00091       0.61019
   194    O    6  py     Ryd( 4p)     0.00002       1.25843
   195    O    6  py     Ryd( 5p)     0.00001       4.92283
   196    O    6  pz     Val( 2p)     0.82878      -0.26159
   197    O    6  pz     Ryd( 3p)     0.00028       0.80987
   198    O    6  pz     Ryd( 4p)     0.00020       1.39619
   199    O    6  pz     Ryd( 5p)     0.00004       5.19994
   200    O    6  dxy    Ryd( 3d)     0.00000       2.90425
   201    O    6  dxz    Ryd( 3d)     0.00090       3.23807
   202    O    6  dyz    Ryd( 3d)     0.00093       3.24698
   203    O    6  dx2y2  Ryd( 3d)     0.00000       2.90465
   204    O    6  dz2    Ryd( 3d)     0.00106       3.89669

   205    O    7  S      Cor( 1S)     0.99987     -18.78276
   206    O    7  S      Val( 2S)     0.84814      -0.81917
   207    O    7  S      Ryd( 4S)     0.00147       1.65414
   208    O    7  S      Ryd( 3S)     0.00002       1.42668
   209    O    7  S      Ryd( 5S)     0.00000      49.64496
   210    O    7  px     Val( 2p)     0.83138      -0.19047
   211    O    7  px     Ryd( 3p)     0.00292       0.56967
   212    O    7  px     Ryd( 4p)     0.00001       1.36331
   213    O    7  px     Ryd( 5p)     0.00001       4.81073
   214    O    7  py     Val( 2p)     0.82714      -0.25043
   215    O    7  py     Ryd( 3p)     0.00061       0.70197
   216    O    7  py     Ryd( 4p)     0.00018       1.48260
   217    O    7  py     Ryd( 5p)     0.00004       5.06887
   218    O    7  pz     Val( 2p)     0.78074      -0.18193
   219    O    7  pz     Ryd( 3p)     0.00183       0.63303
   220    O    7  pz     Ryd( 4p)     0.00005       1.41024
   221    O    7  pz     Ryd( 5p)     0.00001       4.94020
   222    O    7  dxy    Ryd( 3d)     0.00082       3.21107
   223    O    7  dxz    Ryd( 3d)     0.00005       2.93050
   224    O    7  dyz    Ryd( 3d)     0.00086       3.34837
   225    O    7  dx2y2  Ryd( 3d)     0.00077       3.59874
   226    O    7  dz2    Ryd( 3d)     0.00033       3.15687

   227    O    8  S      Cor( 1S)     0.99987     -18.78276
   228    O    8  S      Val( 2S)     0.84814      -0.81917
   229    O    8  S      Ryd( 4S)     0.00147       1.65414
   230    O    8  S      Ryd( 3S)     0.00002       1.42668
   231    O    8  S      Ryd( 5S)     0.00000      49.64496
   232    O    8  px     Val( 2p)     0.83138      -0.19047
   233    O    8  px     Ryd( 3p)     0.00292       0.56967
   234    O    8  px     Ryd( 4p)     0.00001       1.36331
   235    O    8  px     Ryd( 5p)     0.00001       4.81073
   236    O    8  py     Val( 2p)     0.82714      -0.25043
   237    O    8  py     Ryd( 3p)     0.00061       0.70197
   238    O    8  py     Ryd( 4p)     0.00018       1.48260
   239    O    8  py     Ryd( 5p)     0.00004       5.06887
   240    O    8  pz     Val( 2p)     0.78074      -0.18193
   241    O    8  pz     Ryd( 3p)     0.00183       0.63303
   242    O    8  pz     Ryd( 4p)     0.00005       1.41024
   243    O    8  pz     Ryd( 5p)     0.00001       4.94020
   244    O    8  dxy    Ryd( 3d)     0.00082       3.21107
   245    O    8  dxz    Ryd( 3d)     0.00005       2.93050
   246    O    8  dyz    Ryd( 3d)     0.00086       3.34837
   247    O    8  dx2y2  Ryd( 3d)     0.00077       3.59874
   248    O    8  dz2    Ryd( 3d)     0.00033       3.15687

   249    C    9  S      Cor( 1S)     0.99954      -9.99609
   250    C    9  S      Val( 2S)     0.64994      -0.20932
   251    C    9  S      Ryd( 3S)     0.01930       1.86491
   252    C    9  S      Ryd( 4S)     0.00005       2.24751
   253    C    9  S      Ryd( 5S)     0.00000      21.76550
   254    C    9  px     Val( 2p)     0.36636       0.02233
   255    C    9  px     Ryd( 4p)     0.00147       1.01713
   256    C    9  px     Ryd( 3p)     0.00007       0.49495
   257    C    9  px     Ryd( 5p)     0.00008       2.25504
   258    C    9  py     Val( 2p)     0.29922       0.03215
   259    C    9  py     Ryd( 4p)     0.00039       1.09383
   260    C    9  py     Ryd( 3p)     0.00005       0.58950
   261    C    9  py     Ryd( 5p)     0.00002       2.25603
   262    C    9  pz     Val( 2p)     0.43930       0.10219
   263    C    9  pz     Ryd( 4p)     0.00860       1.95936
   264    C    9  pz     Ryd( 3p)     0.00027       0.73896
   265    C    9  pz     Ryd( 5p)     0.00011       3.28805
   266    C    9  dxy    Ryd( 3d)     0.00004       1.47245
   267    C    9  dxz    Ryd( 3d)     0.00225       1.87822
   268    C    9  dyz    Ryd( 3d)     0.00210       1.92210
   269    C    9  dx2y2  Ryd( 3d)     0.00004       1.52051
   270    C    9  dz2    Ryd( 3d)     0.00068       3.00076

   271    O   10  S      Cor( 1S)     0.99987     -18.79614
   272    O   10  S      Val( 2S)     0.85315      -0.84000
   273    O   10  S      Ryd( 3S)     0.00110       1.33341
   274    O   10  S      Ryd( 4S)     0.00001       1.59212
   275    O   10  S      Ryd( 5S)     0.00000      49.31000
   276    O   10  px     Val( 2p)     0.81947      -0.20207
   277    O   10  px     Ryd( 3p)     0.00153       0.67904
   278    O   10  px     Ryd( 4p)     0.00001       1.42342
   279    O   10  px     Ryd( 5p)     0.00000       4.60877
   280    O   10  py     Val( 2p)     0.78180      -0.19533
   281    O   10  py     Ryd( 3p)     0.00062       0.69293
   282    O   10  py     Ryd( 4p)     0.00001       1.43182
   283    O   10  py     Ryd( 5p)     0.00000       4.63774
   284    O   10  pz     Val( 2p)     0.82693      -0.26395
   285    O   10  pz     Ryd( 3p)     0.00043       0.84385
   286    O   10  pz     Ryd( 4p)     0.00017       1.70799
   287    O   10  pz     Ryd( 5p)     0.00004       4.86613
   288    O   10  dxy    Ryd( 3d)     0.00000       2.90010
   289    O   10  dxz    Ryd( 3d)     0.00090       3.23590
[...]
                                                    86(r),158(r),145(r),179(r)
                                                    75(r),92(r),141(r),175(r)
    15. BD (   2) C   9 - O  10          0.99795    -0.30903  55(v)
    16. BD (   3) C   9 - O  10          0.99779    -0.30493  56(v)
    26. CR (   1)Ni   2                  1.00000  -299.27092  283(r),289(r),277(r),279(r)
                                                    278(r)
    27. CR (   2)Ni   2                  1.00000   -34.32784  283(r),289(r),54(g),290(v)
                                                    277(r),279(r),278(r),281(r)
                                                    287(r),141(r),175(r),145(r)
                                                    179(r)
    28. CR (   3)Ni   2                  0.99618    -5.31981  283(r),289(r),290(v),277(r)
                                                    279(r),54(g),278(r),243(v)
                                                    145(r),179(r),281(r),287(r)
                                                    141(r),175(r),86(r),62(r)
                                                    75(r),144(r),178(r),67(r)
                                                    77(r),70(r)
    29. CR (   4)Ni   2                  1.00000   -30.93176   
    30. CR (   5)Ni   2                  0.99905    -2.47684  56(g),292(v),48(r),282(r)
                                                    288(r)
    31. CR (   6)Ni   2                  1.00000   -30.93581   
    32. CR (   7)Ni   2                  0.99844    -2.48094  283(r),289(r),291(v),55(g)
                                                    145(r),179(r)
    33. CR (   8)Ni   2                  1.00000   -30.94398   
    34. CR (   9)Ni   2                  0.99798    -2.48708  280(g),277(r),279(r),290(v)
                                                    283(r),289(r),278(r),62(r)
                                                    86(r),75(r),281(r),287(r)
                                                    145(r),179(r),68(r),77(r)
    41. CR (   1) C   9                  0.99954    -9.99475  54(v),280(g),263(v),290(g)
    42. CR (   1) O  10                  0.99987   -18.79596  243(v),244(v),280(v)
    49. LP (   1)Ni   2                  0.99181    -0.09467  244(v),105(g),54(g),277(r)
                                                    279(r),125(g),114(g),102(g)
                                                    126(g),62(r),145(r),179(r)
                                                    68(r),116(g),280(g),152(r)
                                                    186(r),141(r),175(r),108(g)
                                                    249(v),129(g),144(r),178(r)
                                                    64(r),252(v),278(r),158(r)
                                                    67(r),92(r),86(r),281(r)
                                                    287(r),146(r),180(r),69(r)
                                                    71(r),142(r),176(r),75(r)
                                                    157(r),191(r),150(r),184(r)
                                                    283(r),289(r),216(r),233(r)
                                                    209(r),226(r),219(r),236(r)
                                                    70(r),168(r),156(r),190(r)
    50. LP (   2)Ni   2                  0.98180    -0.09242  282(r),288(r),143(r),177(r)
                                                    148(r),182(r),155(r),189(r)
    51. LP (   3)Ni   2                  0.94450    -0.10646  283(r),289(r),244(v),243(v)
                                                    105(g),281(r),287(r),280(g)
                                                    116(g),117(g),114(g),144(r)
                                                    178(r),146(r),180(r),278(r)
                                                    70(r),71(r),152(r),186(r)
                                                    159(r)
    52. LP (   4)Ni   2                  0.91783    -0.09248  292(v),282(r),288(r),245(v)
                                                    61(r),48(r),248(v),143(r)
                                                    177(r),286(r)
    53. LP (   5)Ni   2                  0.87534    -0.09689  291(v),283(r),289(r),55(g)
                                                    144(r),178(r),246(v),141(r)
                                                    175(r),110(g),142(r),176(r)
                                                    257(v),277(r),279(r),145(r)
                                                    179(r),150(r),184(r),281(r)
                                                    287(r),156(r),190(r),63(r)
    54. LP*(   6)Ni   2                  0.13287     0.97968  158(r),106(g),141(r),175(r)
                                                    114(g),277(r),279(r),243(v)
                                                    62(r),68(r),104(g),64(r)
                                                    102(g),105(g),210(r),227(r)
                                                    117(g),209(r),226(r),125(g)
                                                    259(v),145(r),179(r),86(r)
                                                    67(r),126(g),92(r),152(r)
                                                    186(r),192(r),219(r),236(r)
                                                    75(r),269(r),118(g),249(v)
                                                    290(v),69(r),260(r),280(g)
                                                    129(g),167(r),196(r),159(r)
                                                    70(r),212(r),229(r),142(r)
                                                    176(r),251(v),128(g),77(r)
                                                    134(g),146(r),180(r),85(r)
                                                    263(r),283(r),289(r),244(v)
                                                    171(r),78(r),111(g),150(r)
                                                    184(r),89(r),149(r),183(r)
                                                    276(r),94(r),281(r),287(r)
                                                    97(r),144(r),178(r),208(r)
                                                    71(r),213(r),230(r),151(r)
                                                    185(r),154(r),188(r),203(r)
                                                    284(r),216(r),233(r),165(r)
                                                    224(r),241(r),220(r),237(r)
                                                    278(r),156(r),190(r),223(r)
                                                    240(r)
    55. LP*(   7)Ni   2                  0.07702     0.35357   
    56. LP*(   8)Ni   2                  0.00551     0.26648   
    60. LP (   1) O  10                  0.99059    -0.61068  243(v),280(v),244(v),64(r)
   101. RY*(   1)Ni   2                  0.00087     0.99880   
   102. RY*(   2)Ni   2                  0.00074     1.79547   
   103. RY*(   3)Ni   2                  0.00052     1.59743   
   104. RY*(   4)Ni   2                  0.00027     1.86271   
   105. RY*(   5)Ni   2                  0.00016     3.51999   
   106. RY*(   6)Ni   2                  0.00014     0.95993   
   107. RY*(   7)Ni   2                  0.00004     2.75243   
   108. RY*(   8)Ni   2                  0.00004     2.14332   
   109. RY*(   9)Ni   2                  0.00005     1.62054   
   110. RY*(  10)Ni   2                  0.00002     1.34427   
   111. RY*(  11)Ni   2                  0.00002     2.99045   
   112. RY*(  12)Ni   2                  0.00002     0.99760   
   113. RY*(  13)Ni   2                  0.00001     1.79118   
   114. RY*(  14)Ni   2                  0.00001     0.89744   
   115. RY*(  15)Ni   2                  0.00000     1.34259   
   116. RY*(  16)Ni   2                  0.00000     2.48155   
   117. RY*(  17)Ni   2                  0.00000    10.51480   
   118. RY*(  18)Ni   2                  0.00000    32.24051   
   119. RY*(  19)Ni   2                  0.00000     2.80925   
   120. RY*(  20)Ni   2                  0.00000    11.20198   
   121. RY*(  21)Ni   2                  0.00000     6.51347   
   122. RY*(  22)Ni   2                  0.00000    32.27499   
   123. RY*(  23)Ni   2                  0.00000     1.85378   
   124. RY*(  24)Ni   2                  0.00000     6.97914   
   125. RY*(  25)Ni   2                  0.00000   111.39381   
   126. RY*(  26)Ni   2                  0.00000   290.65718   
   127. RY*(  27)Ni   2                  0.00000     6.67749   
   128. RY*(  28)Ni   2                  0.00000   631.16739   
   129. RY*(  29)Ni   2                  0.00000     2.18816   
   130. RY*(  30)Ni   2                  0.00000     6.89266   
   131. RY*(  31)Ni   2                  0.00000    12.09274   
   132. RY*(  32)Ni   2                  0.00000    32.28303   
   133. RY*(  33)Ni   2                  0.00000     6.93345   
   134. RY*(  34)Ni   2                  0.00001     3.78919   
   135. RY*(  35)Ni   2                  0.00000     3.75136   
   136. RY*(  36)Ni   2                  0.00000     3.56790   
   137. RY*(  37)Ni   2                  0.00000     3.74942   
   138. RY*(  38)Ni   2                  0.00000     3.67347   
   139. RY*(  39)Ni   2                  0.00000     3.74069   
   140. RY*(  40)Ni   2                  0.00000     3.78321   
   243. RY*(   1) C   9                  0.00877     1.20232   
   244. RY*(   2) C   9                  0.00261     2.87245   
   245. RY*(   3) C   9                  0.00179     1.56104   
   246. RY*(   4) C   9                  0.00167     1.80548   
   247. RY*(   5) C   9                  0.00034     1.33933   
   248. RY*(   6) C   9                  0.00024     1.20090   
   249. RY*(   7) C   9                  0.00004     1.71130   
   250. RY*(   8) C   9                  0.00004     1.47833   
   251. RY*(   9) C   9                  0.00004     1.93286   
   252. RY*(  10) C   9                  0.00002     3.46705   
   253. RY*(  11) C   9                  0.00002     1.83653   
   254. RY*(  12) C   9                  0.00000    21.41163   
   255. RY*(  13) C   9                  0.00000     2.14724   
   256. RY*(  14) C   9                  0.00000     0.55370   
   257. RY*(  15) C   9                  0.00001     0.56006   
   258. RY*(  16) C   9                  0.00000     2.33358   
   259. RY*(  17) C   9                  0.00000     1.87753   
   260. RY*(   1) O  10                  0.00081     1.17029   
   261. RY*(   2) O  10                  0.00059     0.67805   
   262. RY*(   3) O  10                  0.00049     0.63962   
   263. RY*(   4) O  10                  0.00008     1.18728   
   264. RY*(   5) O  10                  0.00000     1.50509   
   265. RY*(   6) O  10                  0.00000     4.61138   
   266. RY*(   7) O  10                  0.00000    49.32328   
   267. RY*(   8) O  10                  0.00000     1.49366   
   268. RY*(   9) O  10                  0.00000     4.63759   
   269. RY*(  10) O  10                  0.00001     1.64141   
   270. RY*(  11) O  10                  0.00001     1.86726   
   271. RY*(  12) O  10                  0.00001     4.78853   
   272. RY*(  13) O  10                  0.00000     2.90495   
   273. RY*(  14) O  10                  0.00000     3.20637   
   274. RY*(  15) O  10                  0.00000     3.19860   
   275. RY*(  16) O  10                  0.00000     2.90495   
   276. RY*(  17) O  10                  0.00000     3.57041   
   280. BD*(   1)Ni   2 - C   9          0.01419     0.48772   
   290. BD*(   1) C   9 - O  10          0.00453     0.83342   
   291. BD*(   2) C   9 - O  10          0.07920     0.16303   
   292. BD*(   3) C   9 - O  10          0.06163     0.16885   
       -------------------------------
              Total Lewis   20.67812  ( 98.1234%)
        Valence non-Lewis    0.37494  (  1.7792%)
        Rydberg non-Lewis    0.02054  (  0.0974%)
       -------------------------------
            Total unit  2   21.07360  (100.0000%)
           Charge unit  2   -0.07360
 Sorting of NBOs:                   17   26   27   18   24   22   20   33   31   29
 Sorting of NBOs:                   42   38   39   40   35   37   41   36   19   28
 Sorting of NBOs:                   23   25   21   34   32   30   14    8   11    5
 Sorting of NBOs:                   60   57   59   58    4    2    3    1   15   16
 Sorting of NBOs:                    9   10    7   13   12    6   46   45   44   51
 Sorting of NBOs:                   43   47   53   49   52   50  289  283  291  292
 Sorting of NBOs:                  285  288  282  286   56   48   55  173  280  278
 Sorting of NBOs:                  256  257  194  228  211  193  262  153  187  261
 Sorting of NBOs:                  226  209   66  279  277  287  281  284  290  114
 Sorting of NBOs:                   61  192  106  164  175  141   54  158  112  101
 Sorting of NBOs:                  227  210  143  177   65   74  162  260   64  263
 Sorting of NBOs:                  248  243  160  212  229  233  216   70  198  201
 Sorting of NBOs:                  183  149  195  247  115   63  110  218  235  219
 Sorting of NBOs:                  236  150  184  147  181  250  178  144  267  166
 Sorting of NBOs:                  264  152  186  202  148  182  163   69  245  169
 Sorting of NBOs:                  103  109  269   67  249  196  161  113  102   73
 Sorting of NBOs:                  246   80  253   83  123  104  270  259  145  179
 Sorting of NBOs:                  170  251   71  151  185  230  213  146  180  191
 Sorting of NBOs:                  157   76  108  255   68  129   89  258   92   62
 Sorting of NBOs:                  168  189  155  174  116  176  142  107  171  119
 Sorting of NBOs:                  188  154  244  272  275  204  207  222  239  225
 Sorting of NBOs:                  242  111  159   72  274  238  221  273  206  205
 Sorting of NBOs:                  240  223   95  241  224  252   99  105  100  167
 Sorting of NBOs:                  136  208  276  138   96   98  139   97  137  135
 Sorting of NBOs:                  140  134   94  165  265  268  271  231  214  197
 Sorting of NBOs:                  220  237  200  203  217  234  121   87  127   90
 Sorting of NBOs:                   81   93  130   84  133  124  117  120  131   77
 Sorting of NBOs:                   88   79  172  254  190  156  118  122  132   91
 Sorting of NBOs:                   78   82  266  199  232  215  125   86  126   75
 Sorting of NBOs:                   85  128
 Reordering of NBOs for storage:    17   26   27   18   24   22   20   33   31   29
 Reordering of NBOs for storage:    42   38   39   40   35   37   41   36   19   28
 Reordering of NBOs for storage:    23   25   21   34   32   30   14    8   11    5
 Reordering of NBOs for storage:    60   57   59   58    4    2    3    1   15   16
 Reordering of NBOs for storage:     9   10    7   13   12    6   46   45   44   51
 Reordering of NBOs for storage:    43   47   53   49   52   50  289  283  291  292
 Reordering of NBOs for storage:   285  288  282  286   56   48   55  280  278  279
 Reordering of NBOs for storage:   277  287  281  284  290   54  173  256  257  194
 Reordering of NBOs for storage:   228  211  193  262  153  187  261  226  209   66
 Reordering of NBOs for storage:   114   61  192  106  164  175  141  158  112  101
 Reordering of NBOs for storage:   227  210  143  177   65   74  162  260   64  263
 Reordering of NBOs for storage:   248  243  160  212  229  233  216   70  198  201
 Reordering of NBOs for storage:   183  149  195  247  115   63  110  218  235  219
 Reordering of NBOs for storage:   236  150  184  147  181  250  178  144  267  166
 Reordering of NBOs for storage:   264  152  186  202  148  182  163   69  245  169
 Reordering of NBOs for storage:   103  109  269   67  249  196  161  113  102   73
 Reordering of NBOs for storage:   246   80  253   83  123  104  270  259  145  179
 Reordering of NBOs for storage:   170  251   71  151  185  230  213  146  180  191
 Reordering of NBOs for storage:   157   76  108  255   68  129   89  258   92   62
 Reordering of NBOs for storage:   168  189  155  174  116  176  142  107  171  119
 Reordering of NBOs for storage:   188  154  244  272  275  204  207  222  239  225
 Reordering of NBOs for storage:   242  111  159   72  274  238  221  273  206  205
 Reordering of NBOs for storage:   240  223   95  241  224  252   99  105  100  167
 Reordering of NBOs for storage:   136  208  276  138   96   98  139   97  137  135
 Reordering of NBOs for storage:   140  134   94  165  265  268  271  231  214  197
 Reordering of NBOs for storage:   220  237  200  203  217  234  121   87  127   90
 Reordering of NBOs for storage:    81   93  130   84  133  124  117  120  131   77
 Reordering of NBOs for storage:    88   79  172  254  190  156  118  122  132   91
 Reordering of NBOs for storage:    78   82  266  199  232  215  125   86  126   75
 Reordering of NBOs for storage:    85  128
 Labels of output orbitals:  CR  CR  CR  CR  CR  CR  CR  CR  CR  CR  CR  CR  CR  CR  CR  CR  CR  CR  CR  CR  
 Labels of output orbitals:  CR  CR  CR  CR  CR  CR  BD  BD  BD  BD  LP  LP  LP  LP  BD  BD  BD  BD  BD  BD  
 Labels of output orbitals:  BD  BD  BD  BD  BD  BD  LP  LP  LP  LP  LP  LP  LP  LP  LP  LP  BD* BD* BD* BD* 
 Labels of output orbitals:  BD* BD* BD* BD* LP* LP* LP* BD* BD* BD* BD* BD* BD* BD* BD* LP* RY* RY* RY* RY* 
 Labels of output orbitals:  RY* RY* RY* RY* RY* RY* RY* RY* RY* RY* RY* RY* RY* RY* RY* RY* RY* RY* RY* RY* 
 Labels of output orbitals:  RY* RY* RY* RY* RY* RY* RY* RY* RY* RY* RY* RY* RY* RY* RY* RY* RY* RY* RY* RY* 
 Labels of output orbitals:  RY* RY* RY* RY* RY* RY* RY* RY* RY* RY* RY* RY* RY* RY* RY* RY* RY* RY* RY* RY* 
 Labels of output orbitals:  RY* RY* RY* RY* RY* RY* RY* RY* RY* RY* RY* RY* RY* RY* RY* RY* RY* RY* RY* RY* 
 Labels of output orbitals:  RY* RY* RY* RY* RY* RY* RY* RY* RY* RY* RY* RY* RY* RY* RY* RY* RY* RY* RY* RY* 
 Labels of output orbitals:  RY* RY* RY* RY* RY* RY* RY* RY* RY* RY* RY* RY* RY* RY* RY* RY* RY* RY* RY* RY* 
 Labels of output orbitals:  RY* RY* RY* RY* RY* RY* RY* RY* RY* RY* RY* RY* RY* RY* RY* RY* RY* RY* RY* RY* 
 Labels of output orbitals:  RY* RY* RY* RY* RY* RY* RY* RY* RY* RY* RY* RY* RY* RY* RY* RY* RY* RY* RY* RY* 
 Labels of output orbitals:  RY* RY* RY* RY* RY* RY* RY* RY* RY* RY* RY* RY* RY* RY* RY* RY* RY* RY* RY* RY* 
 Labels of output orbitals:  RY* RY* RY* RY* RY* RY* RY* RY* RY* RY* RY* RY* RY* RY* RY* RY* RY* RY* RY* RY* 
 Labels of output orbitals:  RY* RY* RY* RY* RY* RY* RY* RY* RY* RY* RY* RY* 
 1|1|UNPC-CCX|SP|UB3LYP|6-311+G(d)|C4Ni2O4(1-,2)|CCX|22-Oct-2016|0||# u
 b3lyp/6-311+g(d) guess=read geom=allcheck pop=(nboread,savenbo)||Title
  Card Required||-1,2|Ni,0.,0.,-1.157247|Ni,0.,0.,1.161557|C,0.,1.55698
 7,-0.157315|C,0.,0.,-2.907821|C,0.,-1.556987,-0.157315|O,0.,0.,-4.0686
 84|O,0.,-2.69462,0.1093|O,0.,2.69462,0.1093|C,0.,0.,2.909411|O,0.,0.,4
 .069779||Version=IA32W-G09RevA.02|State=2-B1|HF=-3470.2305746|S2=0.767
 082|S2-1=0.|S2A=0.750233|RMSD=6.562e-009|Dipole=0.,0.,0.0435306|Quadru
 pole=11.5535581,1.5077904,-13.0613485,0.,0.,0.|PG=C02V [C2(O1C1Ni1Ni1C
 1O1),SGV(C2O2)]||@


 ABSOLUTISM, OBSOLETISM -- IF IT WORKS, IT'S OUT OF DATE

                          -- STAFFORD BEER
 Job cpu time:  0 days  0 hours  6 minutes 35.0 seconds.
 File lengths (MBytes):  RWF=     84 Int=      0 D2E=      0 Chk=      8 Scr=      1
 Normal termination of Gaussian 09 at Sat Oct 22 21:16:16 2016.
