 Entering Link 1 = C:\G09W\l1.exe PID=      7672.
  
 Copyright (c) 1988,1990,1992,1993,1995,1998,2003,2009, Gaussian, Inc.
                  All Rights Reserved.
  
 This is part of the Gaussian(R) 09 program.  It is based on
 the Gaussian(R) 03 system (copyright 2003, Gaussian, Inc.),
 the Gaussian(R) 98 system (copyright 1998, Gaussian, Inc.),
 the Gaussian(R) 94 system (copyright 1995, Gaussian, Inc.),
 the Gaussian 92(TM) system (copyright 1992, Gaussian, Inc.),
 the Gaussian 90(TM) system (copyright 1990, Gaussian, Inc.),
 the Gaussian 88(TM) system (copyright 1988, Gaussian, Inc.),
 the Gaussian 86(TM) system (copyright 1986, Carnegie Mellon
 University), and the Gaussian 82(TM) system (copyright 1983,
 Carnegie Mellon University). Gaussian is a federally registered
 trademark of Gaussian, Inc.
  
 This software contains proprietary and confidential information,
 including trade secrets, belonging to Gaussian, Inc.
  
 This software is provided under written license and may be
 used, copied, transmitted, or stored only in accord with that
 written license.
  
 The following legend is applicable only to US Government
 contracts under FAR:
  
                    RESTRICTED RIGHTS LEGEND
  
 Use, reproduction and disclosure by the US Government is
 subject to restrictions as set forth in subparagraphs (a)
 and (c) of the Commercial Computer Software - Restricted
 Rights clause in FAR 52.227-19.
  
 Gaussian, Inc.
 340 Quinnipiac St., Bldg. 40, Wallingford CT 06492
  
  
 ---------------------------------------------------------------
 Warning -- This program may not be used in any manner that
 competes with the business of Gaussian, Inc. or will provide
 assistance to any competitor of Gaussian, Inc.  The licensee
 of this program is prohibited from giving any competitor of
 Gaussian, Inc. access to this program.  By using this program,
 the user acknowledges that Gaussian, Inc. is engaged in the
 business of creating and licensing software in the field of
 computational chemistry and represents and warrants to the
 licensee that it is not a competitor of Gaussian, Inc. and that
 it will not use this program in any manner prohibited above.
 ---------------------------------------------------------------
  

 Cite this work as:
 Gaussian 09, Revision A.02,
 M. J. Frisch, G. W. Trucks, H. B. Schlegel, G. E. Scuseria, 
 M. A. Robb, J. R. Cheeseman, G. Scalmani, V. Barone, B. Mennucci, 
 G. A. Petersson, H. Nakatsuji, M. Caricato, X. Li, H. P. Hratchian, 
 A. F. Izmaylov, J. Bloino, G. Zheng, J. L. Sonnenberg, M. Hada, 
 M. Ehara, K. Toyota, R. Fukuda, J. Hasegawa, M. Ishida, T. Nakajima, 
 Y. Honda, O. Kitao, H. Nakai, T. Vreven, J. A. Montgomery, Jr., 
 J. E. Peralta, F. Ogliaro, M. Bearpark, J. J. Heyd, E. Brothers, 
 K. N. Kudin, V. N. Staroverov, R. Kobayashi, J. Normand, 
 K. Raghavachari, A. Rendell, J. C. Burant, S. S. Iyengar, J. Tomasi, 
 M. Cossi, N. Rega, J. M. Millam, M. Klene, J. E. Knox, J. B. Cross, 
 V. Bakken, C. Adamo, J. Jaramillo, R. Gomperts, R. E. Stratmann, 
 O. Yazyev, A. J. Austin, R. Cammi, C. Pomelli, J. W. Ochterski, 
 R. L. Martin, K. Morokuma, V. G. Zakrzewski, G. A. Voth, 
 P. Salvador, J. J. Dannenberg, S. Dapprich, A. D. Daniels, 
 O. Farkas, J. B. Foresman, J. V. Ortiz, J. Cioslowski, 
 and D. J. Fox, Gaussian, Inc., Wallingford CT, 2009.
 
 ******************************************
 Gaussian 09:  IA32W-G09RevA.02 11-Jun-2009
                23-Oct-2016 
 ******************************************
 %nprocshared=1
 Will use up to    1 processors via shared memory.
 %chk=E:\theoretical calculation\Ni2COn-\6311+Gd Use\Ni2CO6-_2th_3_D2h_big_chk_NB
 O.chk
 %mem=400MB
 ------------------------------------------------------------------
 # ub3lyp/6-311+g(d) guess=read geom=allcheck pop=(nboread,savenbo)
 ------------------------------------------------------------------
 1/29=7,38=1/1;
 2/12=2,40=1/2;
 3/5=4,6=6,7=11,11=2,14=-4,16=1,25=1,30=1,74=-5,116=2/1,2,3;
 4/5=1/1;
 5/5=2,38=6/2;
 6/7=2,8=2,9=2,10=2,28=1,40=1,73=1/1,7;
 99/5=1,9=1/99;
 -------------------
 Title Card Required
 -------------------
 No Z-matrix found on checkpoint file.
 Cartesian coordinates read from the checkpoint file:
 E:\theoretical calculation\Ni2COn-\6311+Gd Use\Ni2CO6-_2th_3_D2h_big_chk_NBO.chk
 Charge = -1 Multiplicity = 2
  Ni                                               -1.258939000000      0.000000000000      0.000000000000
  Ni                                                1.258939000000      0.000000000000      0.000000000000
  C                                                -2.189295000000      1.534275000000      0.000000000000
  C                                                -2.189295000000     -1.534275000000      0.000000000000
  C                                                 0.000000000000      0.000000000000      1.541471000000
  C                                                 2.189295000000      1.534275000000      0.000000000000
  C                                                 2.189295000000     -1.534275000000      0.000000000000
  C                                                 0.000000000000      0.000000000000     -1.541471000000
  O                                                -2.849284000000      2.481342000000      0.000000000000
  O                                                 0.000000000000      0.000000000000      2.707642000000
  O                                                 2.849284000000      2.481342000000      0.000000000000
  O                                                 2.849284000000     -2.481342000000      0.000000000000
  O                                                 0.000000000000      0.000000000000     -2.707642000000
  O                                                -2.849284000000     -2.481342000000      0.000000000000
 Recover connectivity data from disk.
                          Input orientation:                          
 ---------------------------------------------------------------------
 Center     Atomic      Atomic             Coordinates (Angstroms)
 Number     Number       Type             X           Y           Z
 ---------------------------------------------------------------------
      1         28           0       -1.258939    0.000000    0.000000
      2         28           0        1.258939    0.000000    0.000000
      3          6           0       -2.189295    1.534275    0.000000
      4          6           0       -2.189295   -1.534275    0.000000
      5          6           0        0.000000    0.000000    1.541471
      6          6           0        2.189295    1.534275    0.000000
      7          6           0        2.189295   -1.534275    0.000000
      8          6           0        0.000000    0.000000   -1.541471
      9          8           0       -2.849284    2.481342    0.000000
     10          8           0        0.000000    0.000000    2.707642
     11          8           0        2.849284    2.481342    0.000000
     12          8           0        2.849284   -2.481342    0.000000
     13          8           0        0.000000    0.000000   -2.707642
     14          8           0       -2.849284   -2.481342    0.000000
 ---------------------------------------------------------------------
                    Distance matrix (angstroms):
                    1          2          3          4          5
     1  Ni   0.000000
     2  Ni   2.517878   0.000000
     3  C    1.794314   3.774164   0.000000
     4  C    1.794314   3.774164   3.068550   0.000000
     5  C    1.990241   1.990241   3.085959   3.085959   0.000000
     6  C    3.774164   1.794314   4.378590   5.346779   3.085959
     7  C    3.774164   1.794314   5.346779   4.378590   3.085959
     8  C    1.990241   1.990241   3.085959   3.085959   3.082942
     9  O    2.947245   4.799433   1.154349   4.069492   4.080638
    10  O    2.986009   2.986009   3.805041   3.805041   1.166171
    11  O    4.799433   2.947245   5.126813   6.443016   4.080638
    12  O    4.799433   2.947245   6.443016   5.126813   4.080638
    13  O    2.986009   2.986009   3.805041   3.805041   4.249113
    14  O    2.947245   4.799433   4.069492   1.154349   4.080638
                    6          7          8          9         10
     6  C    0.000000
     7  C    3.068550   0.000000
     8  C    3.085959   3.085959   0.000000
     9  O    5.126813   6.443016   4.080638   0.000000
    10  O    3.805041   3.805041   4.249113   4.648312   0.000000
    11  O    1.154349   4.069492   4.080638   5.698568   4.648312
    12  O    4.069492   1.154349   4.080638   7.556581   4.648312
    13  O    3.805041   3.805041   1.166171   4.648312   5.415284
    14  O    6.443016   5.126813   4.080638   4.962684   4.648312
                   11         12         13         14
    11  O    0.000000
    12  O    4.962684   0.000000
    13  O    4.648312   4.648312   0.000000
    14  O    7.556581   5.698568   4.648312   0.000000
 Stoichiometry    C6Ni2O6(1-,2)
 Framework group  D2H[C2(Ni.Ni),C2"(OC.CO),SG"(C4O4)]
 Deg. of freedom     7
 Full point group                 D2H     NOp   8
 Largest Abelian subgroup         D2H     NOp   8
 Largest concise Abelian subgroup D2H     NOp   8
                         Standard orientation:                         
 ---------------------------------------------------------------------
 Center     Atomic      Atomic             Coordinates (Angstroms)
 Number     Number       Type             X           Y           Z
 ---------------------------------------------------------------------
      1         28           0       -1.258939    0.000000    0.000000
      2         28           0        1.258939    0.000000    0.000000
      3          6           0       -2.189295    1.534275    0.000000
      4          6           0       -2.189295   -1.534275    0.000000
      5          6           0        0.000000    0.000000    1.541471
      6          6           0        2.189295    1.534275    0.000000
      7          6           0        2.189295   -1.534275    0.000000
      8          6           0        0.000000    0.000000   -1.541471
      9          8           0       -2.849284    2.481342    0.000000
     10          8           0        0.000000    0.000000    2.707642
     11          8           0        2.849284    2.481342    0.000000
     12          8           0        2.849284   -2.481342    0.000000
     13          8           0        0.000000    0.000000   -2.707642
     14          8           0       -2.849284   -2.481342    0.000000
 ---------------------------------------------------------------------
 Rotational constants (GHZ):      0.6329315      0.4126621      0.3509471
 Standard basis: 6-311+G(d) (5D, 7F)
 There are    81 symmetry adapted basis functions of AG  symmetry.
 There are    47 symmetry adapted basis functions of B1G symmetry.
 There are    35 symmetry adapted basis functions of B2G symmetry.
 There are    27 symmetry adapted basis functions of B3G symmetry.
 There are    19 symmetry adapted basis functions of AU  symmetry.
 There are    47 symmetry adapted basis functions of B1U symmetry.
 There are    55 symmetry adapted basis functions of B2U symmetry.
 There are    69 symmetry adapted basis functions of B3U symmetry.
 Integral buffers will be    262144 words long.
 Raffenetti 2 integral format.
 Two-electron integral symmetry is turned on.
   380 basis functions,   620 primitive gaussians,   406 cartesian basis functions
    71 alpha electrons       70 beta electrons
       nuclear repulsion energy      1544.4492450041 Hartrees.
 NAtoms=   14 NActive=   14 NUniq=    5 SFac= 3.00D+00 NAtFMM=   80 NAOKFM=F Big=F
 One-electron integrals computed using PRISM.
 NBasis=   380 RedAO= T  NBF=    81    47    35    27    19    47    55    69
 NBsUse=   380 1.00D-06 NBFU=    81    47    35    27    19    47    55    69
 Initial guess read from the checkpoint file:  E:\theoretical calculation\Ni2COn-
 \6311+Gd Use\Ni2CO6-_2th_3_D2h_big_chk_NBO.chk
 B after Tr=     0.000000    0.000000    0.000000
         Rot=    1.000000    0.000000    0.000000    0.000000 Ang=   0.00 deg.
 Initial guess orbital symmetries:
 Alpha Orbitals:
       Occupied  (B3U) (AG) (B3U) (AG) (B1G) (B2U) (B3U) (AG) (B2G)
                 (B1U) (B1G) (B2U) (AG) (B3U) (AG) (B1U) (B1G)
                 (B3U) (AG) (B2U) (AG) (B1U) (AG) (B3U) (B2U) (B1G)
                 (AG) (B3U) (B1U) (B2G) (AG) (B3U) (B2U) (B1G)
                 (AG) (B1U) (AG) (B3U) (B2U) (B1G) (AG) (B1U) (AG)
                 (B3U) (B2G) (B3G) (AG) (B1U) (B3U) (AU) (B2U)
                 (B1G) (B2G) (B3U) (B2U) (AG) (B1U) (B1G) (B3G)
                 (B2U) (AG) (B3G) (AU) (B2U) (B3U) (B2G) (B3U)
                 (AG) (B1U) (B1G) (B2G)
       Virtual   (B3U) (AG) (B1U) (B3U) (AG) (B3G) (B2U) (AU) (B3G)
                 (B2U) (B1G) (B3U) (B2U) (B2G) (B1G) (B1U) (AG)
                 (AG) (B2G) (AG) (B3U) (B3U) (B2U) (B3G) (B3U)
                 (B1U) (AU) (B2U) (AG) (B1G) (B1U) (B1G) (B2G)
                 (B3G) (AG) (B2U) (B3U) (B1U) (B2G) (AG) (B3U)
                 (B2U) (AG) (B2U) (B1G) (AG) (B1U) (B2G) (B1G)
                 (B3U) (AG) (B3U) (AU) (AG) (B3G) (B3U) (B2U) (B1G)
                 (B1U) (B3G) (AG) (AG) (B2U) (B1G) (B3U) (B2U)
                 (B1U) (B2G) (B3U) (AG) (B2U) (B1U) (B3U) (AG)
                 (B2G) (B1G) (AU) (AG) (B3U) (B3G) (B1U) (AG) (B3U)
                 (B2U) (B2G) (B1U) (AU) (B3G) (B1G) (B2U) (AG)
                 (B2G) (B1G) (B3U) (B3U) (B1U) (B3G) (B2U) (B2G)
                 (AG) (B3U) (B2U) (AG) (B1U) (B1G) (AG) (B3U) (B1G)
                 (AG) (B2U) (B1U) (B2U) (B3U) (B1G) (AG) (B3U)
                 (B2G) (AG) (AU) (B1U) (B2U) (B1G) (B3G) (AG) (B2U)
                 (B3U) (B3G) (B1G) (AG) (B2U) (B1U) (AG) (B3U)
                 (B3U) (B2G) (AU) (B3G) (B2G) (AU) (B1G) (AG) (B1U)
                 (B2U) (B2U) (B3G) (B1G) (B2G) (B1U) (B3U) (AG)
                 (B3U) (B2U) (B1U) (B1G) (AG) (B3U) (B3G) (B2U)
                 (B2G) (AU) (B1U) (AG) (B3U) (B1G) (AG) (B1U) (B2U)
                 (AG) (AU) (B1G) (B3G) (B3U) (AG) (B3U) (B2G) (B1U)
                 (B2G) (B2U) (AG) (B1U) (B1G) (AG) (B3U) (B1G)
                 (AG) (B2U) (AU) (B3G) (B3U) (B3G) (B2G) (B1U)
                 (B3U) (B2U) (AU) (B1G) (B3G) (B2G) (B2U) (AG)
                 (B1U) (AG) (B3U) (B1G) (AU) (B1U) (AG) (B1G) (B2G)
                 (B2U) (B3U) (AG) (B2U) (B1G) (B1U) (B3U) (AG)
                 (B3G) (B2U) (B1G) (AU) (B2G) (B1U) (B2U) (B3G)
                 (B3U) (AG) (B3U) (B2G) (B2G) (AG) (AU) (B3G) (B1U)
                 (B1G) (B2U) (B3U) (B2U) (AG) (B2G) (B1U) (B1G)
                 (B3U) (B1U) (AG) (B1G) (B2U) (AG) (B3U) (AG) (B3U)
                 (B2G) (B1U) (B2U) (AU) (B3G) (B3G) (B2U) (B3U)
                 (B1G) (AG) (B3U) (B2G) (B1U) (AG) (B2U) (B1G)
                 (B3U) (AG) (AU) (AG) (B3G) (B3U) (B2G) (B1U) (AG)
                 (B2U) (B1G) (B3U) (B1U) (B2G) (B2U) (B1G) (AG)
                 (B3U) (B1U) (AG) (B2U) (B3U) (B1G) (AG) (AG) (B3U)
                 (B1U) (B2G) (B2U) (B1G) (AG) (B3U) (B1U) (B3U)
                 (AG) (B2U) (AG) (B1G) (AG) (B3U) (AG) (B3U)
 Beta  Orbitals:
       Occupied  (B3U) (AG) (B3U) (AG) (B1G) (B2U) (B2G) (B1U)
                 (B3U) (AG) (B1G) (B2U) (AG) (B3U) (AG) (B1U) (B1G)
                 (B3U) (AG) (B2U) (AG) (B1U) (AG) (B3U) (B2U) (B1G)
                 (AG) (B3U) (B1U) (B2G) (AG) (B3U) (B2U) (B1G)
                 (AG) (B1U) (AG) (B3U) (B2U) (B1G) (AG) (B1U) (AG)
                 (B3U) (AG) (B3U) (B2U) (B3G) (B2G) (B1G) (B1U)
                 (AU) (B2U) (AG) (B1G) (B1U) (B3G) (B3U) (B2U)
                 (B2G) (AG) (B3G) (AU) (B2G) (B2U) (B3U) (B3U)
                 (AG) (B1U) (B1G)
       Virtual   (B2G) (B3U) (AG) (B3U) (AG) (B1U) (B2U) (B3G)
                 (AU) (B2U) (B1G) (B3G) (B2U) (B3U) (B1G) (B1U)
                 (B2G) (AG) (AG) (B2G) (AG) (B3U) (B3U) (B2U) (B3G)
                 (B3U) (B1U) (AU) (B2U) (AG) (B1G) (B1U) (B1G)
                 (B2G) (B3G) (AG) (B2U) (B3U) (B1U) (B2G) (AG)
                 (B3U) (B2U) (AG) (B2U) (B1G) (B1U) (AG) (B2G)
                 (B1G) (AG) (B3U) (B3U) (AU) (AG) (B3G) (B3U) (B2U)
                 (B1G) (B1U) (B3G) (AG) (AG) (B2U) (B1G) (B3U)
                 (B2U) (B1U) (B2G) (B3U) (AG) (B2U) (B1U) (B3U)
                 (AG) (B2G) (B1G) (AU) (AG) (B3U) (B3G) (B1U) (AG)
                 (B3U) (B2U) (B2G) (B1U) (AU) (B1G) (B3G) (B2U)
                 (AG) (B2G) (B1G) (B3U) (B3U) (B1U) (B3G) (B2U)
                 (B2G) (AG) (B3U) (B2U) (AG) (B1U) (B1G) (AG) (B3U)
                 (B1G) (AG) (B2U) (B1U) (B2U) (B3U) (B1G) (AG)
                 (B3U) (B2G) (AG) (AU) (B2U) (B1U) (B1G) (B3G)
                 (AG) (B2U) (B3U) (B3G) (B1G) (AG) (B2U) (B1U)
                 (AG) (B3U) (B3U) (B2G) (AU) (B3G) (B2G) (AU) (B1G)
                 (AG) (B1U) (B2U) (B2U) (B3G) (B1G) (B2G) (B1U)
                 (B3U) (AG) (B3U) (B2U) (B1U) (B1G) (AG) (B3U)
                 (B2U) (B3G) (B2G) (AU) (B1U) (AG) (B3U) (B1G)
                 (AG) (B1U) (B2U) (AG) (AU) (B1G) (B3G) (B3U) (AG)
                 (B3U) (B2G) (B1U) (B2G) (B2U) (AG) (B1U) (B1G)
                 (AG) (B3U) (AG) (B1G) (B2U) (AU) (B3G) (B3U) (B3G)
                 (B2G) (B1U) (B3U) (B2U) (AU) (B1G) (B3G) (B2G)
                 (B2U) (AG) (B1U) (AG) (B3U) (B1G) (AU) (B1U) (AG)
                 (B1G) (B2U) (B2G) (B3U) (AG) (B2U) (B1G) (B1U)
                 (AG) (B3U) (B3G) (B2U) (B1G) (AU) (B2G) (B1U)
                 (B2U) (B3G) (AG) (B3U) (B3U) (B2G) (B2G) (AG)
                 (AU) (B3G) (B1U) (B1G) (B2U) (B3U) (B2U) (AG)
                 (B2G) (B1G) (B3U) (B1U) (B1U) (AG) (B1G) (B2U)
                 (AG) (B3U) (AG) (B3U) (B2G) (B1U) (B2U) (AU) (B3G)
                 (B3G) (B3U) (B2U) (B1G) (AG) (B3U) (B2G) (B1U)
                 (AG) (B2U) (B1G) (B3U) (AG) (AU) (AG) (B3G) (B3U)
                 (B2G) (B1U) (AG) (B2U) (B1G) (B3U) (B1U) (B2G)
                 (B2U) (B1G) (AG) (B3U) (B1U) (AG) (B2U) (B3U)
                 (B1G) (AG) (AG) (B3U) (B1U) (B2G) (B2U) (B1G)
                 (AG) (B3U) (B1U) (B3U) (AG) (B2U) (AG) (B1G) (AG)
                 (B3U) (AG) (B3U)
 Initial guess <Sx>= 0.0000 <Sy>= 0.0000 <Sz>= 0.5000 <S**2>= 0.7693 S= 0.5096
 Requested convergence on RMS density matrix=1.00D-08 within 128 cycles.
 Requested convergence on MAX density matrix=1.00D-06.
 Requested convergence on             energy=1.00D-06.
 No special actions if energy rises.
 SCF Done:  E(UB3LYP) =  -3696.99842825     A.U. after    7 cycles
             Convg  =    0.9254D-08             -V/T =  2.0013
 <Sx>= 0.0000 <Sy>= 0.0000 <Sz>= 0.5000 <S**2>= 0.7693 S= 0.5096
 <L.S>= 0.000000000000E+00
 Annihilation of the first spin contaminant:
 S**2 before annihilation     0.7693,   after     0.7503

 **********************************************************************

            Population analysis using the SCF density.

 **********************************************************************

 Orbital symmetries:
 Alpha Orbitals:
       Occupied  (B3U) (AG) (B3U) (AG) (B1G) (B2U) (B3U) (AG) (B2G)
                 (B1U) (B1G) (B2U) (AG) (B3U) (AG) (B1U) (B1G)
                 (B3U) (AG) (B2U) (AG) (B1U) (AG) (B3U) (B2U) (B1G)
                 (AG) (B3U) (B1U) (B2G) (AG) (B3U) (B2U) (B1G)
                 (AG) (B1U) (AG) (B3U) (B2U) (B1G) (AG) (B1U) (AG)
                 (B3U) (B2G) (B3G) (AG) (B1U) (B3U) (AU) (B2U)
                 (B1G) (B2G) (B3U) (B2U) (AG) (B1U) (B1G) (B3G)
                 (B2U) (AG) (B3G) (AU) (B2U) (B3U) (B2G) (B3U)
                 (AG) (B1U) (B1G) (B2G)
       Virtual   (B3U) (AG) (B1U) (B3U) (AG) (B3G) (B2U) (AU) (B3G)
                 (B2U) (B1G) (B3U) (B2U) (B2G) (B1G) (B1U) (AG)
                 (AG) (B2G) (AG) (B3U) (B3U) (B2U) (B3G) (B3U)
                 (B1U) (AU) (B2U) (AG) (B1G) (B1U) (B1G) (B2G)
                 (B3G) (AG) (B2U) (B3U) (B1U) (B2G) (AG) (B3U)
                 (B2U) (AG) (B2U) (B1G) (AG) (B1U) (B2G) (B1G)
                 (B3U) (AG) (B3U) (AU) (AG) (B3G) (B3U) (B2U) (B1G)
                 (B1U) (B3G) (AG) (AG) (B2U) (B1G) (B3U) (B2U)
                 (B1U) (B2G) (B3U) (AG) (B2U) (B1U) (B3U) (AG)
                 (B2G) (B1G) (AU) (AG) (B3U) (B3G) (B1U) (AG) (B3U)
                 (B2U) (B2G) (B1U) (AU) (B3G) (B1G) (B2U) (AG)
                 (B2G) (B1G) (B3U) (B3U) (B1U) (B3G) (B2U) (B2G)
                 (AG) (B3U) (B2U) (AG) (B1U) (B1G) (AG) (B3U) (B1G)
                 (AG) (B2U) (B1U) (B2U) (B3U) (B1G) (AG) (B3U)
                 (B2G) (AG) (AU) (B1U) (B2U) (B1G) (B3G) (AG) (B2U)
                 (B3U) (B3G) (B1G) (AG) (B2U) (B1U) (AG) (B3U)
                 (B3U) (B2G) (AU) (B3G) (B2G) (AU) (B1G) (AG) (B1U)
                 (B2U) (B2U) (B3G) (B1G) (B2G) (B1U) (B3U) (AG)
                 (B3U) (B2U) (B1U) (B1G) (AG) (B3U) (B3G) (B2U)
                 (B2G) (AU) (B1U) (AG) (B3U) (B1G) (AG) (B1U) (B2U)
                 (AG) (AU) (B1G) (B3G) (B3U) (AG) (B3U) (B2G) (B1U)
                 (B2G) (B2U) (AG) (B1U) (B1G) (AG) (B3U) (B1G)
                 (AG) (B2U) (AU) (B3G) (B3U) (B3G) (B2G) (B1U)
                 (B3U) (B2U) (AU) (B1G) (B3G) (B2G) (B2U) (AG)
                 (B1U) (AG) (B3U) (B1G) (AU) (B1U) (AG) (B1G) (B2G)
                 (B2U) (B3U) (AG) (B2U) (B1G) (B1U) (B3U) (AG)
                 (B3G) (B2U) (B1G) (AU) (B2G) (B1U) (B2U) (B3G)
                 (B3U) (AG) (B3U) (B2G) (B2G) (AG) (AU) (B3G) (B1U)
                 (B1G) (B2U) (B3U) (B2U) (AG) (B2G) (B1U) (B1G)
                 (B3U) (B1U) (AG) (B1G) (B2U) (AG) (B3U) (AG) (B3U)
                 (B2G) (B1U) (B2U) (AU) (B3G) (B3G) (B2U) (B3U)
                 (B1G) (AG) (B3U) (B2G) (B1U) (AG) (B2U) (B1G)
                 (B3U) (AG) (AU) (AG) (B3G) (B3U) (B2G) (B1U) (AG)
                 (B2U) (B1G) (B3U) (B1U) (B2G) (B2U) (B1G) (AG)
                 (B3U) (B1U) (AG) (B2U) (B3U) (B1G) (AG) (AG) (B3U)
                 (B1U) (B2G) (B2U) (B1G) (AG) (B3U) (B1U) (B3U)
                 (AG) (B2U) (AG) (B1G) (AG) (B3U) (AG) (B3U)
 Beta  Orbitals:
       Occupied  (B3U) (AG) (B3U) (AG) (B1G) (B2U) (B2G) (B1U)
                 (B3U) (AG) (B1G) (B2U) (AG) (B3U) (AG) (B1U) (B1G)
                 (B3U) (AG) (B2U) (AG) (B1U) (AG) (B3U) (B2U) (B1G)
                 (AG) (B3U) (B1U) (B2G) (AG) (B3U) (B2U) (B1G)
                 (AG) (B1U) (AG) (B3U) (B2U) (B1G) (AG) (B1U) (AG)
                 (B3U) (AG) (B3U) (B2U) (B3G) (B2G) (B1G) (B1U)
                 (AU) (B2U) (AG) (B1G) (B1U) (B3G) (B3U) (B2U)
                 (B2G) (AG) (B3G) (AU) (B2G) (B2U) (B3U) (B3U)
                 (AG) (B1U) (B1G)
       Virtual   (B2G) (B3U) (AG) (B3U) (AG) (B1U) (B2U) (B3G)
                 (AU) (B2U) (B1G) (B3G) (B2U) (B3U) (B1G) (B1U)
                 (B2G) (AG) (AG) (B2G) (AG) (B3U) (B3U) (B2U) (B3G)
                 (B3U) (B1U) (AU) (B2U) (AG) (B1G) (B1U) (B1G)
                 (B2G) (B3G) (AG) (B2U) (B3U) (B1U) (B2G) (AG)
                 (B3U) (B2U) (AG) (B2U) (B1G) (B1U) (AG) (B2G)
                 (B1G) (AG) (B3U) (B3U) (AU) (AG) (B3G) (B3U) (B2U)
                 (B1G) (B1U) (B3G) (AG) (AG) (B2U) (B1G) (B3U)
                 (B2U) (B1U) (B2G) (B3U) (AG) (B2U) (B1U) (B3U)
                 (AG) (B2G) (B1G) (AU) (AG) (B3U) (B3G) (B1U) (AG)
                 (B3U) (B2U) (B2G) (B1U) (AU) (B1G) (B3G) (B2U)
                 (AG) (B2G) (B1G) (B3U) (B3U) (B1U) (B3G) (B2U)
                 (B2G) (AG) (B3U) (B2U) (AG) (B1U) (B1G) (AG) (B3U)
                 (B1G) (AG) (B2U) (B1U) (B2U) (B3U) (B1G) (AG)
                 (B3U) (B2G) (AG) (AU) (B2U) (B1U) (B1G) (B3G)
                 (AG) (B2U) (B3U) (B3G) (B1G) (AG) (B2U) (B1U)
                 (AG) (B3U) (B3U) (B2G) (AU) (B3G) (B2G) (AU) (B1G)
                 (AG) (B1U) (B2U) (B2U) (B3G) (B1G) (B2G) (B1U)
                 (B3U) (AG) (B3U) (B2U) (B1U) (B1G) (AG) (B3U)
                 (B2U) (B3G) (B2G) (AU) (B1U) (AG) (B3U) (B1G)
                 (AG) (B1U) (B2U) (AG) (AU) (B1G) (B3G) (B3U) (AG)
                 (B3U) (B2G) (B1U) (B2G) (B2U) (AG) (B1U) (B1G)
                 (AG) (B3U) (AG) (B1G) (B2U) (AU) (B3G) (B3U) (B3G)
                 (B2G) (B1U) (B3U) (B2U) (AU) (B1G) (B3G) (B2G)
                 (B2U) (AG) (B1U) (AG) (B3U) (B1G) (AU) (B1U) (AG)
                 (B1G) (B2U) (B2G) (B3U) (AG) (B2U) (B1G) (B1U)
                 (AG) (B3U) (B3G) (B2U) (B1G) (AU) (B2G) (B1U)
                 (B2U) (B3G) (AG) (B3U) (B3U) (B2G) (B2G) (AG)
                 (AU) (B3G) (B1U) (B1G) (B2U) (B3U) (B2U) (AG)
                 (B2G) (B1G) (B3U) (B1U) (B1U) (AG) (B1G) (B2U)
                 (AG) (B3U) (AG) (B3U) (B2G) (B1U) (B2U) (AU) (B3G)
                 (B3G) (B3U) (B2U) (B1G) (AG) (B3U) (B2G) (B1U)
                 (AG) (B2U) (B1G) (B3U) (AG) (AU) (AG) (B3G) (B3U)
                 (B2G) (B1U) (AG) (B2U) (B1G) (B3U) (B1U) (B2G)
                 (B2U) (B1G) (AG) (B3U) (B1U) (AG) (B2U) (B3U)
                 (B1G) (AG) (AG) (B3U) (B1U) (B2G) (B2U) (B1G)
                 (AG) (B3U) (B1U) (B3U) (AG) (B2U) (AG) (B1G) (AG)
                 (B3U) (AG) (B3U)
 The electronic state is 2-B2G.
 Alpha  occ. eigenvalues -- -299.68749-299.68749 -35.61699 -35.61699 -31.06284
 Alpha  occ. eigenvalues --  -31.06283 -31.05959 -31.05958 -31.05939 -31.05939
 Alpha  occ. eigenvalues --  -19.07356 -19.07355 -19.07355 -19.07355 -19.05165
 Alpha  occ. eigenvalues --  -19.05163 -10.15453 -10.15453 -10.15453 -10.15453
 Alpha  occ. eigenvalues --  -10.14564 -10.14563  -3.87583  -3.87561  -2.47160
 Alpha  occ. eigenvalues --   -2.47145  -2.46635  -2.46408  -2.46092  -2.46070
 Alpha  occ. eigenvalues --   -1.00794  -1.00793  -1.00781  -1.00781  -0.98358
 Alpha  occ. eigenvalues --   -0.98346  -0.46296  -0.44926  -0.44115  -0.44082
 Alpha  occ. eigenvalues --   -0.43538  -0.43258  -0.35890  -0.34636  -0.33476
 Alpha  occ. eigenvalues --   -0.33420  -0.33325  -0.33283  -0.33246  -0.33222
 Alpha  occ. eigenvalues --   -0.32962  -0.32726  -0.31992  -0.31923  -0.31708
 Alpha  occ. eigenvalues --   -0.31324  -0.31279  -0.31177  -0.30845  -0.30620
 Alpha  occ. eigenvalues --   -0.16040  -0.15552  -0.14852  -0.14071  -0.14071
 Alpha  occ. eigenvalues --   -0.13889  -0.13393  -0.10573  -0.10062  -0.08957
 Alpha  occ. eigenvalues --   -0.02045
 Alpha virt. eigenvalues --    0.07969   0.08707   0.09339   0.09358   0.09487
 Alpha virt. eigenvalues --    0.10277   0.10579   0.10875   0.11907   0.11908
 Alpha virt. eigenvalues --    0.11962   0.12277   0.12706   0.13147   0.13836
 Alpha virt. eigenvalues --    0.13931   0.15051   0.16170   0.16444   0.16710
 Alpha virt. eigenvalues --    0.16922   0.17542   0.17697   0.18821   0.19392
 Alpha virt. eigenvalues --    0.19598   0.20978   0.21597   0.21792   0.22606
 Alpha virt. eigenvalues --    0.22784   0.24355   0.24609   0.25044   0.26516
 Alpha virt. eigenvalues --    0.27634   0.28273   0.29917   0.30277   0.31331
 Alpha virt. eigenvalues --    0.34299   0.34665   0.35478   0.36642   0.36951
 Alpha virt. eigenvalues --    0.37464   0.37465   0.37940   0.38474   0.38896
 Alpha virt. eigenvalues --    0.39060   0.39307   0.39501   0.39680   0.40153
 Alpha virt. eigenvalues --    0.40862   0.40925   0.41458   0.41972   0.42473
 Alpha virt. eigenvalues --    0.42818   0.43905   0.44620   0.45365   0.45805
 Alpha virt. eigenvalues --    0.46534   0.47493   0.47496   0.47507   0.48696
 Alpha virt. eigenvalues --    0.49250   0.49922   0.51841   0.53591   0.53651
 Alpha virt. eigenvalues --    0.56291   0.57735   0.61029   0.61107   0.62539
 Alpha virt. eigenvalues --    0.62833   0.64078   0.65550   0.66561   0.66654
 Alpha virt. eigenvalues --    0.68414   0.73435   0.73707   0.73824   0.74547
 Alpha virt. eigenvalues --    0.74963   0.76156   0.76778   0.77098   0.81700
 Alpha virt. eigenvalues --    0.82147   0.85167   0.85408   0.85916   0.86707
 Alpha virt. eigenvalues --    0.87830   0.89300   0.91353   0.91963   0.93971
 Alpha virt. eigenvalues --    0.95037   0.96349   0.98704   1.01341   1.01727
 Alpha virt. eigenvalues --    1.03904   1.07366   1.09425   1.10340   1.15989
 Alpha virt. eigenvalues --    1.16203   1.20447   1.21817   1.22440   1.23021
 Alpha virt. eigenvalues --    1.23078   1.24391   1.25250   1.26408   1.26649
 Alpha virt. eigenvalues --    1.26771   1.27236   1.28634   1.29410   1.30623
 Alpha virt. eigenvalues --    1.30826   1.31004   1.32278   1.33716   1.34894
 Alpha virt. eigenvalues --    1.38667   1.40219   1.40240   1.43137   1.43562
 Alpha virt. eigenvalues --    1.45607   1.45819   1.46170   1.47013   1.48277
 Alpha virt. eigenvalues --    1.55308   1.55499   1.55633   1.56038   1.59152
 Alpha virt. eigenvalues --    1.62603   1.64754   1.71590   1.73121   1.73871
 Alpha virt. eigenvalues --    1.76405   1.77417   1.77498   1.78141   1.78153
 Alpha virt. eigenvalues --    1.78955   1.79223   1.81012   1.83344   1.90226
 Alpha virt. eigenvalues --    1.91110   1.94416   1.95423   1.97301   1.98654
 Alpha virt. eigenvalues --    2.00459   2.04105   2.04504   2.12829   2.20882
 Alpha virt. eigenvalues --    2.24336   2.32182   2.37811   2.39190   2.39753
 Alpha virt. eigenvalues --    2.43035   2.58835   2.61133   2.78285   2.78316
 Alpha virt. eigenvalues --    2.79307   2.79619   2.80070   2.81746   2.83254
 Alpha virt. eigenvalues --    2.84619   2.88223   2.90658   2.91499   2.91948
 Alpha virt. eigenvalues --    2.92075   2.92157   2.92228   2.92605   2.92692
 Alpha virt. eigenvalues --    2.92768   2.93029   2.93259   2.93365   2.94929
 Alpha virt. eigenvalues --    2.95733   2.96666   2.99618   3.00496   3.00912
 Alpha virt. eigenvalues --    3.09237   3.25502   3.31690   3.31854   3.35121
 Alpha virt. eigenvalues --    3.38606   3.38690   3.45922   3.46237   3.46798
 Alpha virt. eigenvalues --    3.47459   3.48144   3.48982   3.51030   3.51066
 Alpha virt. eigenvalues --    3.52516   3.52749   3.53328   3.54435   3.76106
 Alpha virt. eigenvalues --    3.78168   3.80527   3.82395   3.83051   3.85682
 Alpha virt. eigenvalues --    3.87183   3.89640   3.89872   3.91219   3.91614
 Alpha virt. eigenvalues --    3.92907   3.93098   3.93154   3.97288   4.03931
 Alpha virt. eigenvalues --    4.09764   4.11599   4.14920   4.22130   4.46490
 Alpha virt. eigenvalues --    4.53059   5.11643   5.13484   5.14151   5.14213
 Alpha virt. eigenvalues --    5.15446   5.17631   5.18082   5.18141   5.18407
 Alpha virt. eigenvalues --    5.18639   5.25670   5.26832   5.73295   5.74032
 Alpha virt. eigenvalues --    5.75109   5.75958   5.78535   5.79144   6.98021
 Alpha virt. eigenvalues --    7.00694   7.04674   7.11469   7.15486   7.15746
 Alpha virt. eigenvalues --    7.23189   7.24997   7.25122   7.36592   9.10411
 Alpha virt. eigenvalues --    9.18546   9.38075   9.41930   9.49618   9.55597
 Alpha virt. eigenvalues --   23.96090  24.00191  24.00496  24.01247  24.02294
 Alpha virt. eigenvalues --   24.04944  30.13699  30.27236  36.57932  36.64251
 Alpha virt. eigenvalues --   36.78952  36.80966  36.87616  36.94897  50.04957
 Alpha virt. eigenvalues --   50.12769  50.12947  50.13760  50.14827  50.15962
 Alpha virt. eigenvalues --  162.52018 162.62601 845.23263 845.33904
  Beta  occ. eigenvalues -- -299.68723-299.68723 -35.62037 -35.62037 -31.06512
  Beta  occ. eigenvalues --  -31.06512 -31.06243 -31.06243 -31.06208 -31.06208
  Beta  occ. eigenvalues --  -19.07221 -19.07221 -19.07221 -19.07221 -19.04748
  Beta  occ. eigenvalues --  -19.04747 -10.15375 -10.15375 -10.15375 -10.15375
  Beta  occ. eigenvalues --  -10.14401 -10.14399  -3.88249  -3.88226  -2.47759
  Beta  occ. eigenvalues --   -2.47744  -2.47289  -2.47064  -2.46921  -2.46899
  Beta  occ. eigenvalues --   -1.00565  -1.00564  -1.00553  -1.00552  -0.97659
  Beta  occ. eigenvalues --   -0.97647  -0.45652  -0.44552  -0.43805  -0.43773
  Beta  occ. eigenvalues --   -0.42949  -0.42395  -0.35516  -0.34025  -0.33181
  Beta  occ. eigenvalues --   -0.33084  -0.32807  -0.32748  -0.32617  -0.32581
  Beta  occ. eigenvalues --   -0.32551  -0.32514  -0.31419  -0.31068  -0.30957
  Beta  occ. eigenvalues --   -0.30859  -0.30458  -0.30377  -0.30364  -0.30055
  Beta  occ. eigenvalues --   -0.16540  -0.15872  -0.15233  -0.14450  -0.14193
  Beta  occ. eigenvalues --   -0.13896  -0.13596  -0.11074  -0.10080  -0.09246
  Beta virt. eigenvalues --    0.03396   0.08537   0.08727   0.09481   0.09502
  Beta virt. eigenvalues --    0.10159   0.10674   0.10816   0.11956   0.12095
  Beta virt. eigenvalues --    0.12118   0.12657   0.12805   0.13535   0.13836
  Beta virt. eigenvalues --    0.14039   0.14625   0.15052   0.16167   0.16689
  Beta virt. eigenvalues --    0.16734   0.16973   0.17548   0.17697   0.18868
  Beta virt. eigenvalues --    0.19501   0.19618   0.21014   0.21617   0.21823
  Beta virt. eigenvalues --    0.22610   0.22898   0.24352   0.24647   0.25059
  Beta virt. eigenvalues --    0.26637   0.27659   0.28287   0.30156   0.30605
  Beta virt. eigenvalues --    0.31429   0.34414   0.34692   0.35753   0.36670
  Beta virt. eigenvalues --    0.37101   0.37533   0.37594   0.38051   0.38518
  Beta virt. eigenvalues --    0.39119   0.39140   0.39496   0.39579   0.39721
  Beta virt. eigenvalues --    0.40194   0.40903   0.40951   0.41520   0.42092
  Beta virt. eigenvalues --    0.42544   0.42929   0.44072   0.44643   0.45373
  Beta virt. eigenvalues --    0.46036   0.46602   0.47681   0.47718   0.47899
  Beta virt. eigenvalues --    0.48866   0.49272   0.50489   0.51988   0.53673
  Beta virt. eigenvalues --    0.54432   0.56603   0.58521   0.61288   0.61393
  Beta virt. eigenvalues --    0.62964   0.63347   0.64292   0.65940   0.66727
  Beta virt. eigenvalues --    0.67465   0.68936   0.73743   0.73946   0.73957
  Beta virt. eigenvalues --    0.74833   0.75152   0.76636   0.76867   0.77361
  Beta virt. eigenvalues --    0.81813   0.82499   0.85444   0.85495   0.86406
  Beta virt. eigenvalues --    0.86869   0.88231   0.89448   0.91551   0.92105
  Beta virt. eigenvalues --    0.94395   0.95119   0.96514   0.98820   1.01517
  Beta virt. eigenvalues --    1.01922   1.04308   1.07579   1.09816   1.10719
  Beta virt. eigenvalues --    1.16245   1.16411   1.20794   1.22185   1.22764
  Beta virt. eigenvalues --    1.23193   1.23332   1.24489   1.25512   1.26520
  Beta virt. eigenvalues --    1.26737   1.26883   1.27460   1.28725   1.29554
  Beta virt. eigenvalues --    1.30795   1.31052   1.31172   1.32468   1.34517
  Beta virt. eigenvalues --    1.35602   1.39107   1.40639   1.40907   1.43725
  Beta virt. eigenvalues --    1.43922   1.46004   1.46247   1.46571   1.47110
  Beta virt. eigenvalues --    1.48489   1.55807   1.55940   1.56071   1.56363
  Beta virt. eigenvalues --    1.59731   1.63029   1.64828   1.71988   1.73295
  Beta virt. eigenvalues --    1.74035   1.76556   1.77631   1.77737   1.78575
  Beta virt. eigenvalues --    1.78694   1.79275   1.79315   1.81236   1.83620
  Beta virt. eigenvalues --    1.90428   1.91840   1.94426   1.95473   1.97621
  Beta virt. eigenvalues --    1.98647   2.00622   2.04119   2.04804   2.13123
  Beta virt. eigenvalues --    2.21317   2.24480   2.32413   2.37836   2.39498
  Beta virt. eigenvalues --    2.39893   2.43203   2.58891   2.61409   2.78368
  Beta virt. eigenvalues --    2.78415   2.79421   2.80156   2.80427   2.81824
  Beta virt. eigenvalues --    2.83563   2.85129   2.88731   2.90805   2.91695
  Beta virt. eigenvalues --    2.92362   2.92557   2.92565   2.92672   2.92955
  Beta virt. eigenvalues --    2.93036   2.93183   2.93231   2.93626   2.94115
  Beta virt. eigenvalues --    2.96137   2.96955   2.97801   3.00113   3.01027
  Beta virt. eigenvalues --    3.01423   3.09828   3.25660   3.31788   3.31962
  Beta virt. eigenvalues --    3.35251   3.38768   3.38843   3.46157   3.46308
  Beta virt. eigenvalues --    3.46843   3.47769   3.48516   3.49326   3.51212
  Beta virt. eigenvalues --    3.51353   3.52830   3.53321   3.53589   3.55358
  Beta virt. eigenvalues --    3.75887   3.78198   3.80373   3.82228   3.82841
  Beta virt. eigenvalues --    3.85492   3.86989   3.89556   3.90023   3.91505
  Beta virt. eigenvalues --    3.91572   3.93260   3.93304   3.93375   3.97096
  Beta virt. eigenvalues --    4.03957   4.09613   4.11458   4.14895   4.22049
  Beta virt. eigenvalues --    4.46322   4.52950   5.12197   5.14010   5.14293
  Beta virt. eigenvalues --    5.14737   5.15907   5.18072   5.18281   5.18455
  Beta virt. eigenvalues --    5.18543   5.18777   5.27263   5.28414   5.73666
  Beta virt. eigenvalues --    5.74344   5.75236   5.76085   5.78661   5.79316
  Beta virt. eigenvalues --    6.97668   7.00329   7.04323   7.11033   7.15022
  Beta virt. eigenvalues --    7.15268   7.22741   7.24676   7.24805   7.36236
  Beta virt. eigenvalues --    9.10012   9.18155   9.37762   9.41622   9.49258
  Beta virt. eigenvalues --    9.55253  23.96266  24.00280  24.00584  24.01336
  Beta virt. eigenvalues --   24.02382  24.05122  30.13270  30.26808  36.57522
  Beta virt. eigenvalues --   36.63842  36.78643  36.80658  36.87278  36.94561
  Beta virt. eigenvalues --   50.05369  50.12902  50.13156  50.13893  50.15163
  Beta virt. eigenvalues --   50.16095 162.51858 162.62441 845.23245 845.33886
          Condensed to atoms (all electrons):
              1          2          3          4          5          6
     1  Ni  28.326589  -0.429866  -0.238086  -0.238086  -0.284411   0.198803
     2  Ni  -0.429866  28.326589   0.198803   0.198803  -0.284411  -0.238086
     3  C   -0.238086   0.198803   6.737499  -0.374963   0.073473  -0.287637
     4  C   -0.238086   0.198803  -0.374963   6.737499   0.073473   0.105573
     5  C   -0.284411  -0.284411   0.073473   0.073473   5.905692   0.073473
     6  C    0.198803  -0.238086  -0.287637   0.105573   0.073473   6.737499
     7  C    0.198803  -0.238086   0.105573  -0.287637   0.073473  -0.374963
     8  C   -0.284411  -0.284411   0.073473   0.073473   0.409311   0.073473
     9  O    0.025922  -0.013786  -0.063775   0.022558  -0.007776   0.013050
    10  O    0.019927   0.019927  -0.012042  -0.012042   0.351505  -0.012042
    11  O   -0.013786   0.025922   0.013050  -0.001513  -0.007776  -0.063775
    12  O   -0.013786   0.025922  -0.001513   0.013050  -0.007776   0.022558
    13  O    0.019927   0.019927  -0.012042  -0.012042  -0.037208  -0.012042
    14  O    0.025922  -0.013786   0.022558  -0.063775  -0.007776  -0.001513
              7          8          9         10         11         12
     1  Ni   0.198803  -0.284411   0.025922   0.019927  -0.013786  -0.013786
     2  Ni  -0.238086  -0.284411  -0.013786   0.019927   0.025922   0.025922
     3  C    0.105573   0.073473  -0.063775  -0.012042   0.013050  -0.001513
     4  C   -0.287637   0.073473   0.022558  -0.012042  -0.001513   0.013050
     5  C    0.073473   0.409311  -0.007776   0.351505  -0.007776  -0.007776
     6  C   -0.374963   0.073473   0.013050  -0.012042  -0.063775   0.022558
     7  C    6.737499   0.073473  -0.001513  -0.012042   0.022558  -0.063775
     8  C    0.073473   5.905692  -0.007776  -0.037208  -0.007776  -0.007776
     9  O   -0.001513  -0.007776   8.131988   0.001660  -0.000249  -0.000006
    10  O   -0.012042  -0.037208   0.001660   7.875831   0.001660   0.001660
    11  O    0.022558  -0.007776  -0.000249   0.001660   8.131988   0.000841
    12  O   -0.063775  -0.007776  -0.000006   0.001660   0.000841   8.131988
    13  O   -0.012042   0.351505   0.001660   0.000467   0.001660   0.001660
    14  O    0.013050  -0.007776   0.000841   0.001660  -0.000006  -0.000249
             13         14
     1  Ni   0.019927   0.025922
     2  Ni   0.019927  -0.013786
     3  C   -0.012042   0.022558
     4  C   -0.012042  -0.063775
     5  C   -0.037208  -0.007776
     6  C   -0.012042  -0.001513
     7  C   -0.012042   0.013050
     8  C    0.351505  -0.007776
     9  O    0.001660   0.000841
    10  O    0.000467   0.001660
    11  O    0.001660  -0.000006
    12  O    0.001660  -0.000249
    13  O    7.875831   0.001660
    14  O    0.001660   8.131988
 Mulliken atomic charges:
              1
     1  Ni   0.686538
     2  Ni   0.686538
     3  C   -0.234373
     4  C   -0.234373
     5  C   -0.323268
     6  C   -0.234373
     7  C   -0.234373
     8  C   -0.323268
     9  O   -0.102800
    10  O   -0.188925
    11  O   -0.102800
    12  O   -0.102800
    13  O   -0.188925
    14  O   -0.102800
 Sum of Mulliken atomic charges =  -1.00000
 Mulliken charges with hydrogens summed into heavy atoms:
              1
     1  Ni   0.686538
     2  Ni   0.686538
     3  C   -0.234373
     4  C   -0.234373
     5  C   -0.323268
     6  C   -0.234373
     7  C   -0.234373
     8  C   -0.323268
     9  O   -0.102800
    10  O   -0.188925
    11  O   -0.102800
    12  O   -0.102800
    13  O   -0.188925
    14  O   -0.102800
 Sum of Mulliken charges with hydrogens summed into heavy atoms =  -1.00000
          Atomic-Atomic Spin Densities.
              1          2          3          4          5          6
     1  Ni   0.116283  -0.107012   0.049567   0.049567   0.036630  -0.010624
     2  Ni  -0.107012   0.116283  -0.010624  -0.010624   0.036630   0.049567
     3  C    0.049567  -0.010624  -0.011893   0.036121   0.009127   0.014136
     4  C    0.049567  -0.010624   0.036121  -0.011893   0.009127  -0.007236
     5  C    0.036630   0.036630   0.009127   0.009127   0.040062   0.009127
     6  C   -0.010624   0.049567   0.014136  -0.007236   0.009127  -0.011893
     7  C   -0.010624   0.049567  -0.007236   0.014136   0.009127   0.036121
     8  C    0.036630   0.036630   0.009127   0.009127   0.006726   0.009127
     9  O   -0.019942   0.003376  -0.015875  -0.001863   0.000205  -0.001009
    10  O   -0.019727  -0.019727  -0.002347  -0.002347  -0.070089  -0.002347
    11  O    0.003376  -0.019942  -0.001009   0.000292   0.000205  -0.015875
    12  O    0.003376  -0.019942   0.000292  -0.001009   0.000205  -0.001863
    13  O   -0.019727  -0.019727  -0.002347  -0.002347  -0.001011  -0.002347
    14  O   -0.019942   0.003376  -0.001863  -0.015875   0.000205   0.000292
              7          8          9         10         11         12
     1  Ni  -0.010624   0.036630  -0.019942  -0.019727   0.003376   0.003376
     2  Ni   0.049567   0.036630   0.003376  -0.019727  -0.019942  -0.019942
     3  C   -0.007236   0.009127  -0.015875  -0.002347  -0.001009   0.000292
     4  C    0.014136   0.009127  -0.001863  -0.002347   0.000292  -0.001009
     5  C    0.009127   0.006726   0.000205  -0.070089   0.000205   0.000205
     6  C    0.036121   0.009127  -0.001009  -0.002347  -0.015875  -0.001863
     7  C   -0.011893   0.009127   0.000292  -0.002347  -0.001863  -0.015875
     8  C    0.009127   0.040062   0.000205  -0.001011   0.000205   0.000205
     9  O    0.000292   0.000205   0.074976   0.000744  -0.000007  -0.000001
    10  O   -0.002347  -0.001011   0.000744   0.228826   0.000744   0.000744
    11  O   -0.001863   0.000205  -0.000007   0.000744   0.074976   0.000023
    12  O   -0.015875   0.000205  -0.000001   0.000744   0.000023   0.074976
    13  O   -0.002347  -0.070089   0.000744  -0.000053   0.000744   0.000744
    14  O   -0.001009   0.000205   0.000023   0.000744  -0.000001  -0.000007
             13         14
     1  Ni  -0.019727  -0.019942
     2  Ni  -0.019727   0.003376
     3  C   -0.002347  -0.001863
     4  C   -0.002347  -0.015875
     5  C   -0.001011   0.000205
     6  C   -0.002347   0.000292
     7  C   -0.002347  -0.001009
     8  C   -0.070089   0.000205
     9  O    0.000744   0.000023
    10  O   -0.000053   0.000744
    11  O    0.000744  -0.000001
    12  O    0.000744  -0.000007
    13  O    0.228826   0.000744
    14  O    0.000744   0.074976
 Mulliken atomic spin densities:
              1
     1  Ni   0.087830
     2  Ni   0.087830
     3  C    0.065176
     4  C    0.065176
     5  C    0.086276
     6  C    0.065176
     7  C    0.065176
     8  C    0.086276
     9  O    0.041868
    10  O    0.111806
    11  O    0.041868
    12  O    0.041868
    13  O    0.111806
    14  O    0.041868
 Sum of Mulliken atomic spin densities =   1.00000
 Electronic spatial extent (au):  <R**2>=           3341.1231
 Charge=             -1.0000 electrons
 Dipole moment (field-independent basis, Debye):
    X=              0.0000    Y=              0.0000    Z=              0.0000  Tot=              0.0000
 Quadrupole moment (field-independent basis, Debye-Ang):
   XX=           -122.8708   YY=           -115.4821   ZZ=           -110.8182
   XY=              0.0000   XZ=              0.0000   YZ=              0.0000
 Traceless Quadrupole moment (field-independent basis, Debye-Ang):
   XX=             -6.4804   YY=              0.9083   ZZ=              5.5721
   XY=              0.0000   XZ=              0.0000   YZ=              0.0000
 Octapole moment (field-independent basis, Debye-Ang**2):
  XXX=              0.0000  YYY=              0.0000  ZZZ=              0.0000  XYY=              0.0000
  XXY=              0.0000  XXZ=              0.0000  XZZ=              0.0000  YZZ=              0.0000
  YYZ=              0.0000  XYZ=              0.0000
 Hexadecapole moment (field-independent basis, Debye-Ang**3):
 XXXX=          -2330.6395 YYYY=          -1400.9917 ZZZZ=           -906.9249 XXXY=              0.0000
 XXXZ=              0.0000 YYYX=              0.0000 YYYZ=              0.0000 ZZZX=              0.0000
 ZZZY=              0.0000 XXYY=           -778.6757 XXZZ=           -470.6385 YYZZ=           -321.2850
 XXYZ=              0.0000 YYXZ=              0.0000 ZZXY=              0.0000
 N-N= 1.544449245004D+03 E-N=-1.785881780271D+04  KE= 5.538668596232D+03
 Symmetry AG   KE= 2.010391935013D+03
 Symmetry B1G  KE= 4.401119503346D+02
 Symmetry B2G  KE= 2.889889602130D+02
 Symmetry B3G  KE= 3.398826593907D+01
 Symmetry AU   KE= 2.944224105126D+01
 Symmetry B1U  KE= 4.362888038298D+02
 Symmetry B2U  KE= 4.407450250272D+02
 Symmetry B3U  KE= 1.858711414824D+03
                          Isotropic Fermi Contact Couplings
        Atom                 a.u.       MegaHertz       Gauss      10(-4) cm-1
     1  Ni(61)             0.05247     -20.99281      -7.49076      -7.00245
     2  Ni(61)             0.05247     -20.99281      -7.49076      -7.00245
     3  C(13)             -0.00867      -9.74915      -3.47874      -3.25197
     4  C(13)             -0.00867      -9.74915      -3.47874      -3.25197
     5  C(13)             -0.01861     -20.92425      -7.46629      -6.97958
     6  C(13)             -0.00867      -9.74915      -3.47874      -3.25197
     7  C(13)             -0.00867      -9.74915      -3.47874      -3.25197
     8  C(13)             -0.01861     -20.92425      -7.46629      -6.97958
     9  O(17)              0.00294      -1.78484      -0.63688      -0.59536
    10  O(17)              0.01306      -7.91639      -2.82476      -2.64062
    11  O(17)              0.00294      -1.78484      -0.63688      -0.59536
    12  O(17)              0.00294      -1.78484      -0.63688      -0.59536
    13  O(17)              0.01306      -7.91639      -2.82476      -2.64062
    14  O(17)              0.00294      -1.78484      -0.63688      -0.59536
 --------------------------------------------------------
       Center         ----  Spin Dipole Couplings  ----
                      3XX-RR        3YY-RR        3ZZ-RR
 --------------------------------------------------------
     1   Atom       -0.262214     -0.207160      0.469374
     2   Atom       -0.262214     -0.207160      0.469374
     3   Atom       -0.036672     -0.041111      0.077783
     4   Atom       -0.036672     -0.041111      0.077783
     5   Atom        0.183236     -0.095314     -0.087922
     6   Atom       -0.036672     -0.041111      0.077783
     7   Atom       -0.036672     -0.041111      0.077783
     8   Atom        0.183236     -0.095314     -0.087922
     9   Atom       -0.092078     -0.102338      0.194415
    10   Atom        0.628150     -0.293727     -0.334423
    11   Atom       -0.092078     -0.102338      0.194415
    12   Atom       -0.092078     -0.102338      0.194415
    13   Atom        0.628150     -0.293727     -0.334423
    14   Atom       -0.092078     -0.102338      0.194415
 --------------------------------------------------------
                        XY            XZ            YZ
 --------------------------------------------------------
     1   Atom        0.000000      0.000000      0.000000
     2   Atom        0.000000      0.000000      0.000000
     3   Atom        0.001634      0.000000      0.000000
     4   Atom       -0.001634      0.000000      0.000000
     5   Atom        0.000000      0.000000      0.000000
     6   Atom       -0.001634      0.000000      0.000000
     7   Atom        0.001634      0.000000      0.000000
     8   Atom        0.000000      0.000000      0.000000
     9   Atom        0.010534      0.000000      0.000000
    10   Atom        0.000000      0.000000      0.000000
    11   Atom       -0.010534      0.000000      0.000000
    12   Atom        0.010534      0.000000      0.000000
    13   Atom        0.000000      0.000000      0.000000
    14   Atom       -0.010534      0.000000      0.000000
 --------------------------------------------------------


 ---------------------------------------------------------------------------------
              Anisotropic Spin Dipole Couplings in Principal Axis System
 ---------------------------------------------------------------------------------

       Atom             a.u.   MegaHertz   Gauss  10(-4) cm-1        Axes

              Baa    -0.2622    12.524     4.469     4.178  1.0000  0.0000  0.0000
     1 Ni(61) Bbb    -0.2072     9.894     3.531     3.300  0.0000  1.0000  0.0000
              Bcc     0.4694   -22.418    -7.999    -7.478  0.0000  0.0000  1.0000
 
              Baa    -0.2622    12.524     4.469     4.178  1.0000  0.0000  0.0000
     2 Ni(61) Bbb    -0.2072     9.894     3.531     3.300  0.0000  1.0000  0.0000
              Bcc     0.4694   -22.418    -7.999    -7.478  0.0000  0.0000  1.0000
 
              Baa    -0.0416    -5.589    -1.994    -1.864 -0.3120  0.9501  0.0000
     3 C(13)  Bbb    -0.0361    -4.849    -1.730    -1.617  0.9501  0.3120  0.0000
              Bcc     0.0778    10.438     3.724     3.482  0.0000  0.0000  1.0000
 
              Baa    -0.0416    -5.589    -1.994    -1.864  0.3120  0.9501  0.0000
     4 C(13)  Bbb    -0.0361    -4.849    -1.730    -1.617  0.9501 -0.3120  0.0000
              Bcc     0.0778    10.438     3.724     3.482  0.0000  0.0000  1.0000
 
              Baa    -0.0953   -12.790    -4.564    -4.266  0.0000  1.0000  0.0000
     5 C(13)  Bbb    -0.0879   -11.798    -4.210    -3.935  0.0000  0.0000  1.0000
              Bcc     0.1832    24.589     8.774     8.202  1.0000  0.0000  0.0000
 
              Baa    -0.0416    -5.589    -1.994    -1.864  0.3120  0.9501  0.0000
     6 C(13)  Bbb    -0.0361    -4.849    -1.730    -1.617  0.9501 -0.3120  0.0000
              Bcc     0.0778    10.438     3.724     3.482  0.0000  0.0000  1.0000
 
              Baa    -0.0416    -5.589    -1.994    -1.864 -0.3120  0.9501  0.0000
     7 C(13)  Bbb    -0.0361    -4.849    -1.730    -1.617  0.9501  0.3120  0.0000
              Bcc     0.0778    10.438     3.724     3.482  0.0000  0.0000  1.0000
 
              Baa    -0.0953   -12.790    -4.564    -4.266  0.0000  1.0000  0.0000
     8 C(13)  Bbb    -0.0879   -11.798    -4.210    -3.935  0.0000  0.0000  1.0000
              Bcc     0.1832    24.589     8.774     8.202  1.0000  0.0000  0.0000
 
              Baa    -0.1089     7.882     2.812     2.629 -0.5302  0.8479  0.0000
     9 O(17)  Bbb    -0.0855     6.186     2.207     2.063  0.8479  0.5302  0.0000
              Bcc     0.1944   -14.068    -5.020    -4.693  0.0000  0.0000  1.0000
 
              Baa    -0.3344    24.199     8.635     8.072  0.0000  0.0000  1.0000
    10 O(17)  Bbb    -0.2937    21.254     7.584     7.090  0.0000  1.0000  0.0000
              Bcc     0.6282   -45.453   -16.219   -15.161  1.0000  0.0000  0.0000
 
              Baa    -0.1089     7.882     2.812     2.629  0.5302  0.8479  0.0000
    11 O(17)  Bbb    -0.0855     6.186     2.207     2.063  0.8479 -0.5302  0.0000
              Bcc     0.1944   -14.068    -5.020    -4.693  0.0000  0.0000  1.0000
 
              Baa    -0.1089     7.882     2.812     2.629 -0.5302  0.8479  0.0000
    12 O(17)  Bbb    -0.0855     6.186     2.207     2.063  0.8479  0.5302  0.0000
              Bcc     0.1944   -14.068    -5.020    -4.693  0.0000  0.0000  1.0000
 
              Baa    -0.3344    24.199     8.635     8.072  0.0000  0.0000  1.0000
    13 O(17)  Bbb    -0.2937    21.254     7.584     7.090  0.0000  1.0000  0.0000
              Bcc     0.6282   -45.453   -16.219   -15.161  1.0000  0.0000  0.0000
 
              Baa    -0.1089     7.882     2.812     2.629  0.5302  0.8479  0.0000
    14 O(17)  Bbb    -0.0855     6.186     2.207     2.063  0.8479 -0.5302  0.0000
              Bcc     0.1944   -14.068    -5.020    -4.693  0.0000  0.0000  1.0000
 

 ---------------------------------------------------------------------------------

 ******************************Gaussian NBO Version 3.1******************************
             N A T U R A L   A T O M I C   O R B I T A L   A N D
          N A T U R A L   B O N D   O R B I T A L   A N A L Y S I S
 ******************************Gaussian NBO Version 3.1******************************

       /RESON  / : Allow strongly delocalized NBO set
       /BNDIDX / : Print bond indices based on the NAO density matrix

 Analyzing the SCF density

 Job title: Title Card Required                                             

 Storage needed:    435110 in NPA,    578994 in NBO (  52428138 available)


 NATURAL POPULATIONS:  Natural atomic orbital occupancies 
                                                          
   NAO  Atom  No  lang   Type(AO)    Occupancy
 --------------------------------------------
     1   Ni    1  S      Cor( 1S)     2.00000
     2   Ni    1  S      Cor( 2S)     2.00000
     3   Ni    1  S      Cor( 3S)     1.99107
     4   Ni    1  S      Val( 4S)     0.41805
     5   Ni    1  S      Ryd( 5S)     0.00245
     6   Ni    1  S      Ryd( 6S)     0.00012
     7   Ni    1  S      Ryd( 7S)     0.00004
     8   Ni    1  S      Ryd( 8S)     0.00000
     9   Ni    1  S      Ryd(10S)     0.00000
    10   Ni    1  S      Ryd( 9S)     0.00000
    11   Ni    1  px     Cor( 2p)     2.00000
    12   Ni    1  px     Cor( 3p)     1.99727
    13   Ni    1  px     Val( 4p)     0.37981
    14   Ni    1  px     Ryd( 5p)     0.00126
    15   Ni    1  px     Ryd( 6p)     0.00045
    16   Ni    1  px     Ryd( 7p)     0.00001
    17   Ni    1  px     Ryd( 8p)     0.00000
    18   Ni    1  py     Cor( 2p)     2.00000
    19   Ni    1  py     Cor( 3p)     1.99787
    20   Ni    1  py     Val( 4p)     0.49227
    21   Ni    1  py     Ryd( 5p)     0.00137
    22   Ni    1  py     Ryd( 6p)     0.00015
    23   Ni    1  py     Ryd( 7p)     0.00003
    24   Ni    1  py     Ryd( 8p)     0.00000
    25   Ni    1  pz     Cor( 2p)     2.00000
    26   Ni    1  pz     Cor( 3p)     1.99778
    27   Ni    1  pz     Val( 4p)     0.41977
    28   Ni    1  pz     Ryd( 5p)     0.00153
    29   Ni    1  pz     Ryd( 6p)     0.00030
    30   Ni    1  pz     Ryd( 7p)     0.00002
    31   Ni    1  pz     Ryd( 8p)     0.00000
    32   Ni    1  dxy    Val( 3d)     1.82323
    33   Ni    1  dxy    Ryd( 4d)     0.00140
    34   Ni    1  dxy    Ryd( 5d)     0.00013
    35   Ni    1  dxy    Ryd( 6d)     0.00003
    36   Ni    1  dxz    Val( 3d)     1.83112
    37   Ni    1  dxz    Ryd( 4d)     0.00083
    38   Ni    1  dxz    Ryd( 5d)     0.00011
    39   Ni    1  dxz    Ryd( 6d)     0.00002
    40   Ni    1  dyz    Val( 3d)     1.87043
    41   Ni    1  dyz    Ryd( 4d)     0.00117
    42   Ni    1  dyz    Ryd( 5d)     0.00004
    43   Ni    1  dyz    Ryd( 6d)     0.00000
    44   Ni    1  dx2y2  Val( 3d)     1.81747
    45   Ni    1  dx2y2  Ryd( 4d)     0.00310
    46   Ni    1  dx2y2  Ryd( 5d)     0.00013
    47   Ni    1  dx2y2  Ryd( 6d)     0.00002
    48   Ni    1  dz2    Val( 3d)     1.84183
    49   Ni    1  dz2    Ryd( 4d)     0.00179
    50   Ni    1  dz2    Ryd( 5d)     0.00009
    51   Ni    1  dz2    Ryd( 6d)     0.00001
    52   Ni    1  f(0)   Ryd( 4f)     0.00002
    53   Ni    1  f(C1)  Ryd( 4f)     0.00004
    54   Ni    1  f(S1)  Ryd( 4f)     0.00002
    55   Ni    1  f(C2)  Ryd( 4f)     0.00005
    56   Ni    1  f(S2)  Ryd( 4f)     0.00001
    57   Ni    1  f(C3)  Ryd( 4f)     0.00005
    58   Ni    1  f(S3)  Ryd( 4f)     0.00002

    59   Ni    2  S      Cor( 1S)     2.00000
    60   Ni    2  S      Cor( 2S)     2.00000
    61   Ni    2  S      Cor( 3S)     1.99107
    62   Ni    2  S      Val( 4S)     0.41805
    63   Ni    2  S      Ryd( 5S)     0.00245
    64   Ni    2  S      Ryd( 6S)     0.00012
    65   Ni    2  S      Ryd( 7S)     0.00004
    66   Ni    2  S      Ryd( 8S)     0.00000
    67   Ni    2  S      Ryd(10S)     0.00000
    68   Ni    2  S      Ryd( 9S)     0.00000
    69   Ni    2  px     Cor( 2p)     2.00000
    70   Ni    2  px     Cor( 3p)     1.99727
    71   Ni    2  px     Val( 4p)     0.37981
    72   Ni    2  px     Ryd( 5p)     0.00126
    73   Ni    2  px     Ryd( 6p)     0.00045
    74   Ni    2  px     Ryd( 7p)     0.00001
    75   Ni    2  px     Ryd( 8p)     0.00000
    76   Ni    2  py     Cor( 2p)     2.00000
    77   Ni    2  py     Cor( 3p)     1.99787
    78   Ni    2  py     Val( 4p)     0.49227
    79   Ni    2  py     Ryd( 5p)     0.00137
    80   Ni    2  py     Ryd( 6p)     0.00015
    81   Ni    2  py     Ryd( 7p)     0.00003
    82   Ni    2  py     Ryd( 8p)     0.00000
    83   Ni    2  pz     Cor( 2p)     2.00000
    84   Ni    2  pz     Cor( 3p)     1.99778
    85   Ni    2  pz     Val( 4p)     0.41977
    86   Ni    2  pz     Ryd( 5p)     0.00153
    87   Ni    2  pz     Ryd( 6p)     0.00030
    88   Ni    2  pz     Ryd( 7p)     0.00002
    89   Ni    2  pz     Ryd( 8p)     0.00000
    90   Ni    2  dxy    Val( 3d)     1.82323
    91   Ni    2  dxy    Ryd( 4d)     0.00140
    92   Ni    2  dxy    Ryd( 5d)     0.00013
    93   Ni    2  dxy    Ryd( 6d)     0.00003
    94   Ni    2  dxz    Val( 3d)     1.83112
    95   Ni    2  dxz    Ryd( 4d)     0.00083
    96   Ni    2  dxz    Ryd( 5d)     0.00011
    97   Ni    2  dxz    Ryd( 6d)     0.00002
    98   Ni    2  dyz    Val( 3d)     1.87043
    99   Ni    2  dyz    Ryd( 4d)     0.00117
   100   Ni    2  dyz    Ryd( 5d)     0.00004
   101   Ni    2  dyz    Ryd( 6d)     0.00000
   102   Ni    2  dx2y2  Val( 3d)     1.81747
   103   Ni    2  dx2y2  Ryd( 4d)     0.00310
   104   Ni    2  dx2y2  Ryd( 5d)     0.00013
   105   Ni    2  dx2y2  Ryd( 6d)     0.00002
   106   Ni    2  dz2    Val( 3d)     1.84183
   107   Ni    2  dz2    Ryd( 4d)     0.00179
   108   Ni    2  dz2    Ryd( 5d)     0.00009
   109   Ni    2  dz2    Ryd( 6d)     0.00001
   110   Ni    2  f(0)   Ryd( 4f)     0.00002
   111   Ni    2  f(C1)  Ryd( 4f)     0.00004
   112   Ni    2  f(S1)  Ryd( 4f)     0.00002
   113   Ni    2  f(C2)  Ryd( 4f)     0.00005
   114   Ni    2  f(S2)  Ryd( 4f)     0.00001
   115   Ni    2  f(C3)  Ryd( 4f)     0.00005
   116   Ni    2  f(S3)  Ryd( 4f)     0.00002

   117    C    3  S      Cor( 1S)     1.99910
   118    C    3  S      Val( 2S)     1.22977
   119    C    3  S      Ryd( 3S)     0.04642
   120    C    3  S      Ryd( 4S)     0.00006
   121    C    3  S      Ryd( 5S)     0.00001
   122    C    3  px     Val( 2p)     0.66290
   123    C    3  px     Ryd( 3p)     0.00596
   124    C    3  px     Ryd( 4p)     0.00031
   125    C    3  px     Ryd( 5p)     0.00012
   126    C    3  py     Val( 2p)     0.74485
   127    C    3  py     Ryd( 3p)     0.01236
   128    C    3  py     Ryd( 4p)     0.00054
   129    C    3  py     Ryd( 5p)     0.00014
   130    C    3  pz     Val( 2p)     0.61942
   131    C    3  pz     Ryd( 3p)     0.00354
   132    C    3  pz     Ryd( 4p)     0.00019
   133    C    3  pz     Ryd( 5p)     0.00009
   134    C    3  dxy    Ryd( 3d)     0.00146
   135    C    3  dxz    Ryd( 3d)     0.00139
   136    C    3  dyz    Ryd( 3d)     0.00285
   137    C    3  dx2y2  Ryd( 3d)     0.00380
   138    C    3  dz2    Ryd( 3d)     0.00037

   139    C    4  S      Cor( 1S)     1.99910
   140    C    4  S      Val( 2S)     1.22977
   141    C    4  S      Ryd( 3S)     0.04642
   142    C    4  S      Ryd( 4S)     0.00006
   143    C    4  S      Ryd( 5S)     0.00001
   144    C    4  px     Val( 2p)     0.66290
   145    C    4  px     Ryd( 3p)     0.00596
   146    C    4  px     Ryd( 4p)     0.00031
   147    C    4  px     Ryd( 5p)     0.00012
   148    C    4  py     Val( 2p)     0.74485
   149    C    4  py     Ryd( 3p)     0.01236
   150    C    4  py     Ryd( 4p)     0.00054
   151    C    4  py     Ryd( 5p)     0.00014
   152    C    4  pz     Val( 2p)     0.61942
   153    C    4  pz     Ryd( 3p)     0.00354
   154    C    4  pz     Ryd( 4p)     0.00019
   155    C    4  pz     Ryd( 5p)     0.00009
   156    C    4  dxy    Ryd( 3d)     0.00146
   157    C    4  dxz    Ryd( 3d)     0.00139
   158    C    4  dyz    Ryd( 3d)     0.00285
   159    C    4  dx2y2  Ryd( 3d)     0.00380
   160    C    4  dz2    Ryd( 3d)     0.00037

   161    C    5  S      Cor( 1S)     1.99926
   162    C    5  S      Val( 2S)     1.15788
   163    C    5  S      Ryd( 3S)     0.03827
   164    C    5  S      Ryd( 4S)     0.00106
   165    C    5  S      Ryd( 5S)     0.00002
   166    C    5  px     Val( 2p)     0.77567
   167    C    5  px     Ryd( 3p)     0.00608
   168    C    5  px     Ryd( 4p)     0.00079
   169    C    5  px     Ryd( 5p)     0.00016
   170    C    5  py     Val( 2p)     0.58533
   171    C    5  py     Ryd( 3p)     0.00372
   172    C    5  py     Ryd( 4p)     0.00063
   173    C    5  py     Ryd( 5p)     0.00012
   174    C    5  pz     Val( 2p)     0.78916
   175    C    5  pz     Ryd( 3p)     0.02069
   176    C    5  pz     Ryd( 4p)     0.00247
   177    C    5  pz     Ryd( 5p)     0.00016
   178    C    5  dxy    Ryd( 3d)     0.00029
   179    C    5  dxz    Ryd( 3d)     0.00331
   180    C    5  dyz    Ryd( 3d)     0.00412
   181    C    5  dx2y2  Ryd( 3d)     0.00036
   182    C    5  dz2    Ryd( 3d)     0.00169

   183    C    6  S      Cor( 1S)     1.99910
   184    C    6  S      Val( 2S)     1.22977
   185    C    6  S      Ryd( 3S)     0.04642
   186    C    6  S      Ryd( 4S)     0.00006
   187    C    6  S      Ryd( 5S)     0.00001
   188    C    6  px     Val( 2p)     0.66290
   189    C    6  px     Ryd( 3p)     0.00596
   190    C    6  px     Ryd( 4p)     0.00031
   191    C    6  px     Ryd( 5p)     0.00012
   192    C    6  py     Val( 2p)     0.74485
   193    C    6  py     Ryd( 3p)     0.01236
   194    C    6  py     Ryd( 4p)     0.00054
   195    C    6  py     Ryd( 5p)     0.00014
   196    C    6  pz     Val( 2p)     0.61942
   197    C    6  pz     Ryd( 3p)     0.00354
   198    C    6  pz     Ryd( 4p)     0.00019
   199    C    6  pz     Ryd( 5p)     0.00009
   200    C    6  dxy    Ryd( 3d)     0.00146
   201    C    6  dxz    Ryd( 3d)     0.00139
   202    C    6  dyz    Ryd( 3d)     0.00285
   203    C    6  dx2y2  Ryd( 3d)     0.00380
   204    C    6  dz2    Ryd( 3d)     0.00037

   205    C    7  S      Cor( 1S)     1.99910
   206    C    7  S      Val( 2S)     1.22977
   207    C    7  S      Ryd( 3S)     0.04642
   208    C    7  S      Ryd( 4S)     0.00006
   209    C    7  S      Ryd( 5S)     0.00001
   210    C    7  px     Val( 2p)     0.66290
   211    C    7  px     Ryd( 3p)     0.00596
   212    C    7  px     Ryd( 4p)     0.00031
   213    C    7  px     Ryd( 5p)     0.00012
   214    C    7  py     Val( 2p)     0.74485
   215    C    7  py     Ryd( 3p)     0.01236
   216    C    7  py     Ryd( 4p)     0.00054
   217    C    7  py     Ryd( 5p)     0.00014
   218    C    7  pz     Val( 2p)     0.61942
   219    C    7  pz     Ryd( 3p)     0.00354
   220    C    7  pz     Ryd( 4p)     0.00019
   221    C    7  pz     Ryd( 5p)     0.00009
   222    C    7  dxy    Ryd( 3d)     0.00146
   223    C    7  dxz    Ryd( 3d)     0.00139
   224    C    7  dyz    Ryd( 3d)     0.00285
   225    C    7  dx2y2  Ryd( 3d)     0.00380
   226    C    7  dz2    Ryd( 3d)     0.00037

   227    C    8  S      Cor( 1S)     1.99926
   228    C    8  S      Val( 2S)     1.15788
   229    C    8  S      Ryd( 3S)     0.03827
   230    C    8  S      Ryd( 4S)     0.00106
   231    C    8  S      Ryd( 5S)     0.00002
   232    C    8  px     Val( 2p)     0.77567
   233    C    8  px     Ryd( 3p)     0.00608
   234    C    8  px     Ryd( 4p)     0.00079
   235    C    8  px     Ryd( 5p)     0.00016
   236    C    8  py     Val( 2p)     0.58533
   237    C    8  py     Ryd( 3p)     0.00372
   238    C    8  py     Ryd( 4p)     0.00063
   239    C    8  py     Ryd( 5p)     0.00012
   240    C    8  pz     Val( 2p)     0.78916
   241    C    8  pz     Ryd( 3p)     0.02069
   242    C    8  pz     Ryd( 4p)     0.00247
   243    C    8  pz     Ryd( 5p)     0.00016
   244    C    8  dxy    Ryd( 3d)     0.00029
   245    C    8  dxz    Ryd( 3d)     0.00331
   246    C    8  dyz    Ryd( 3d)     0.00412
   247    C    8  dx2y2  Ryd( 3d)     0.00036
   248    C    8  dz2    Ryd( 3d)     0.00169

   249    O    9  S      Cor( 1S)     1.99972
   250    O    9  S      Val( 2S)     1.70185
   251    O    9  S      Ryd( 3S)     0.00715
   252    O    9  S      Ryd( 4S)     0.00005
   253    O    9  S      Ryd( 5S)     0.00000
   254    O    9  px     Val( 2p)     1.59542
   255    O    9  px     Ryd( 3p)     0.00109
   256    O    9  px     Ryd( 4p)     0.00015
   257    O    9  px     Ryd( 5p)     0.00004
   258    O    9  py     Val( 2p)     1.63088
   259    O    9  py     Ryd( 3p)     0.00078
   260    O    9  py     Ryd( 4p)     0.00026
   261    O    9  py     Ryd( 5p)     0.00005
   262    O    9  pz     Val( 2p)     1.57296
   263    O    9  pz     Ryd( 3p)     0.00203
   264    O    9  pz     Ryd( 4p)     0.00003
   265    O    9  pz     Ryd( 5p)     0.00001
   266    O    9  dxy    Ryd( 3d)     0.00170
   267    O    9  dxz    Ryd( 3d)     0.00063
   268    O    9  dyz    Ryd( 3d)     0.00130
   269    O    9  dx2y2  Ryd( 3d)     0.00191
   270    O    9  dz2    Ryd( 3d)     0.00056

   271    O   10  S      Cor( 1S)     1.99973
   272    O   10  S      Val( 2S)     1.69309
   273    O   10  S      Ryd( 3S)     0.00576
   274    O   10  S      Ryd( 4S)     0.00004
   275    O   10  S      Ryd( 5S)     0.00000
   276    O   10  px     Val( 2p)     1.59749
   277    O   10  px     Ryd( 3p)     0.00558
   278    O   10  px     Ryd( 4p)     0.00003
   279    O   10  px     Ryd( 5p)     0.00002
   280    O   10  py     Val( 2p)     1.52155
   281    O   10  py     Ryd( 3p)     0.00094
   282    O   10  py     Ryd( 4p)     0.00003
   283    O   10  py     Ryd( 5p)     0.00001
   284    O   10  pz     Val( 2p)     1.67464
   285    O   10  pz     Ryd( 3p)     0.00067
   286    O   10  pz     Ryd( 4p)     0.00014
   287    O   10  pz     Ryd( 5p)     0.00008
   288    O   10  dxy    Ryd( 3d)     0.00000
   289    O   10  dxz    Ryd( 3d)     0.00169
   290    O   10  dyz    Ryd( 3d)     0.00185
   291    O   10  dx2y2  Ryd( 3d)     0.00001
   292    O   10  dz2    Ryd( 3d)     0.00221

   293    O   11  S      Cor( 1S)     1.99972
   294    O   11  S      Val( 2S)     1.70185
   295    O   11  S      Ryd( 3S)     0.00715
   296    O   11  S      Ryd( 4S)     0.00005
   297    O   11  S      Ryd( 5S)     0.00000
   298    O   11  px     Val( 2p)     1.59542
   299    O   11  px     Ryd( 3p)     0.00109
   300    O   11  px     Ryd( 4p)     0.00015
   301    O   11  px     Ryd( 5p)     0.00004
   302    O   11  py     Val( 2p)     1.63088
   303    O   11  py     Ryd( 3p)     0.00078
   304    O   11  py     Ryd( 4p)     0.00026
   305    O   11  py     Ryd( 5p)     0.00005
   306    O   11  pz     Val( 2p)     1.57296
   307    O   11  pz     Ryd( 3p)     0.00203
   308    O   11  pz     Ryd( 4p)     0.00003
   309    O   11  pz     Ryd( 5p)     0.00001
   310    O   11  dxy    Ryd( 3d)     0.00170
   311    O   11  dxz    Ryd( 3d)     0.00063
   312    O   11  dyz    Ryd( 3d)     0.00130
   313    O   11  dx2y2  Ryd( 3d)     0.00191
   314    O   11  dz2    Ryd( 3d)     0.00056

   315    O   12  S      Cor( 1S)     1.99972
   316    O   12  S      Val( 2S)     1.70185
   317    O   12  S      Ryd( 3S)     0.00715
   318    O   12  S      Ryd( 4S)     0.00005
   319    O   12  S      Ryd( 5S)     0.00000
   320    O   12  px     Val( 2p)     1.59542
   321    O   12  px     Ryd( 3p)     0.00109
   322    O   12  px     Ryd( 4p)     0.00015
   323    O   12  px     Ryd( 5p)     0.00004
   324    O   12  py     Val( 2p)     1.63088
   325    O   12  py     Ryd( 3p)     0.00078
   326    O   12  py     Ryd( 4p)     0.00026
   327    O   12  py     Ryd( 5p)     0.00005
   328    O   12  pz     Val( 2p)     1.57296
   329    O   12  pz     Ryd( 3p)     0.00203
   330    O   12  pz     Ryd( 4p)     0.00003
   331    O   12  pz     Ryd( 5p)     0.00001
   332    O   12  dxy    Ryd( 3d)     0.00170
   333    O   12  dxz    Ryd( 3d)     0.00063
   334    O   12  dyz    Ryd( 3d)     0.00130
   335    O   12  dx2y2  Ryd( 3d)     0.00191
   336    O   12  dz2    Ryd( 3d)     0.00056

   337    O   13  S      Cor( 1S)     1.99973
   338    O   13  S      Val( 2S)     1.69309
   339    O   13  S      Ryd( 3S)     0.00576
   340    O   13  S      Ryd( 4S)     0.00004
   341    O   13  S      Ryd( 5S)     0.00000
   342    O   13  px     Val( 2p)     1.59749
   343    O   13  px     Ryd( 3p)     0.00558
   344    O   13  px     Ryd( 4p)     0.00003
   345    O   13  px     Ryd( 5p)     0.00002
   346    O   13  py     Val( 2p)     1.52155
   347    O   13  py     Ryd( 3p)     0.00094
   348    O   13  py     Ryd( 4p)     0.00003
   349    O   13  py     Ryd( 5p)     0.00001
   350    O   13  pz     Val( 2p)     1.67464
   351    O   13  pz     Ryd( 3p)     0.00067
   352    O   13  pz     Ryd( 4p)     0.00014
   353    O   13  pz     Ryd( 5p)     0.00008
   354    O   13  dxy    Ryd( 3d)     0.00000
   355    O   13  dxz    Ryd( 3d)     0.00169
   356    O   13  dyz    Ryd( 3d)     0.00185
   357    O   13  dx2y2  Ryd( 3d)     0.00001
   358    O   13  dz2    Ryd( 3d)     0.00221

   359    O   14  S      Cor( 1S)     1.99972
   360    O   14  S      Val( 2S)     1.70185
   361    O   14  S      Ryd( 3S)     0.00715
   362    O   14  S      Ryd( 4S)     0.00005
   363    O   14  S      Ryd( 5S)     0.00000
   364    O   14  px     Val( 2p)     1.59542
   365    O   14  px     Ryd( 3p)     0.00109
   366    O   14  px     Ryd( 4p)     0.00015
   367    O   14  px     Ryd( 5p)     0.00004
   368    O   14  py     Val( 2p)     1.63088
   369    O   14  py     Ryd( 3p)     0.00078
   370    O   14  py     Ryd( 4p)     0.00026
   371    O   14  py     Ryd( 5p)     0.00005
   372    O   14  pz     Val( 2p)     1.57296
   373    O   14  pz     Ryd( 3p)     0.00203
   374    O   14  pz     Ryd( 4p)     0.00003
   375    O   14  pz     Ryd( 5p)     0.00001
   376    O   14  dxy    Ryd( 3d)     0.00170
   377    O   14  dxz    Ryd( 3d)     0.00063
   378    O   14  dyz    Ryd( 3d)     0.00130
   379    O   14  dx2y2  Ryd( 3d)     0.00191
   380    O   14  dz2    Ryd( 3d)     0.00056

 WARNING:  4 low occupancy (<1.9990e) core orbitals found on Ni    1
           4 low occupancy (<1.9990e) core orbitals found on Ni    2


 Summary of Natural Population Analysis:                  
                                                          
                                       Natural Population 
                Natural  -----------------------------------------------
    Atom  No    Charge         Core      Valence    Rydberg      Total
 -----------------------------------------------------------------------
     Ni    1   -0.89476     17.98399    10.89398    0.01680    28.89476
     Ni    2   -0.89476     17.98399    10.89398    0.01680    28.89476
      C    3    0.66435      1.99910     3.25694    0.07961     5.33565
      C    4    0.66435      1.99910     3.25694    0.07961     5.33565
      C    5    0.60877      1.99926     3.30804    0.08394     5.39123
      C    6    0.66435      1.99910     3.25694    0.07961     5.33565
      C    7    0.66435      1.99910     3.25694    0.07961     5.33565
      C    8    0.60877      1.99926     3.30804    0.08394     5.39123
      O    9   -0.51858      1.99972     6.50111    0.01775     8.51858
      O   10   -0.50556      1.99973     6.48677    0.01906     8.50556
      O   11   -0.51858      1.99972     6.50111    0.01775     8.51858
      O   12   -0.51858      1.99972     6.50111    0.01775     8.51858
      O   13   -0.50556      1.99973     6.48677    0.01906     8.50556
      O   14   -0.51858      1.99972     6.50111    0.01775     8.51858
 =======================================================================
   * Total *   -1.00000     59.96122    80.40979    0.62899   141.00000

                                 Natural Population      
 --------------------------------------------------------
   Core                      59.96122 ( 99.9354% of  60)
   Valence                   80.40979 ( 99.2713% of  81)
   Natural Minimal Basis    140.37101 ( 99.5539% of 141)
   Natural Rydberg Basis      0.62899 (  0.4461% of 141)
 --------------------------------------------------------

    Atom  No          Natural Electron Configuration
 ----------------------------------------------------------------------------
     Ni    1      [core]4S( 0.42)3d( 9.18)4p( 1.29)4d( 0.01)
     Ni    2      [core]4S( 0.42)3d( 9.18)4p( 1.29)4d( 0.01)
      C    3      [core]2S( 1.23)2p( 2.03)3S( 0.05)3p( 0.02)3d( 0.01)
      C    4      [core]2S( 1.23)2p( 2.03)3S( 0.05)3p( 0.02)3d( 0.01)
      C    5      [core]2S( 1.16)2p( 2.15)3S( 0.04)3p( 0.03)3d( 0.01)
      C    6      [core]2S( 1.23)2p( 2.03)3S( 0.05)3p( 0.02)3d( 0.01)
      C    7      [core]2S( 1.23)2p( 2.03)3S( 0.05)3p( 0.02)3d( 0.01)
      C    8      [core]2S( 1.16)2p( 2.15)3S( 0.04)3p( 0.03)3d( 0.01)
      O    9      [core]2S( 1.70)2p( 4.80)3S( 0.01)3d( 0.01)
      O   10      [core]2S( 1.69)2p( 4.79)3S( 0.01)3p( 0.01)3d( 0.01)
      O   11      [core]2S( 1.70)2p( 4.80)3S( 0.01)3d( 0.01)
      O   12      [core]2S( 1.70)2p( 4.80)3S( 0.01)3d( 0.01)
      O   13      [core]2S( 1.69)2p( 4.79)3S( 0.01)3p( 0.01)3d( 0.01)
      O   14      [core]2S( 1.70)2p( 4.80)3S( 0.01)3d( 0.01)


 Wiberg bond index matrix in the NAO basis:                                    

     Atom    1       2       3       4       5       6       7       8       9
     ---- ------  ------  ------  ------  ------  ------  ------  ------  ------
   1. Ni  0.0000  0.2025  1.0736  1.0736  0.6226  0.0130  0.0130  0.6226  0.1084
   2. Ni  0.2025  0.0000  0.0130  0.0130  0.6226  1.0736  1.0736  0.6226  0.0039
   3.  C  1.0736  0.0130  0.0000  0.0515  0.0376  0.0027  0.0041  0.0376  2.0776
   4.  C  1.0736  0.0130  0.0515  0.0000  0.0376  0.0041  0.0027  0.0376  0.0124
   5.  C  0.6226  0.6226  0.0376  0.0376  0.0000  0.0376  0.0376  0.0216  0.0089
   6.  C  0.0130  1.0736  0.0027  0.0041  0.0376  0.0000  0.0515  0.0376  0.0007
   7.  C  0.0130  1.0736  0.0041  0.0027  0.0376  0.0515  0.0000  0.0376  0.0006
   8.  C  0.6226  0.6226  0.0376  0.0376  0.0216  0.0376  0.0376  0.0000  0.0089
   9.  O  0.1084  0.0039  2.0776  0.0124  0.0089  0.0007  0.0006  0.0089  0.0000
  10.  O  0.0628  0.0628  0.0097  0.0097  2.0075  0.0097  0.0097  0.0035  0.0013
  11.  O  0.0039  0.1084  0.0007  0.0006  0.0089  2.0776  0.0124  0.0089  0.0002
  12.  O  0.0039  0.1084  0.0006  0.0007  0.0089  0.0124  2.0776  0.0089  0.0001
  13.  O  0.0628  0.0628  0.0097  0.0097  0.0035  0.0097  0.0097  2.0075  0.0013
  14.  O  0.1084  0.0039  0.0124  2.0776  0.0089  0.0006  0.0007  0.0089  0.0020

     Atom   10      11      12      13      14
     ---- ------  ------  ------  ------  ------
   1. Ni  0.0628  0.0039  0.0039  0.0628  0.1084
   2. Ni  0.0628  0.1084  0.1084  0.0628  0.0039
   3.  C  0.0097  0.0007  0.0006  0.0097  0.0124
   4.  C  0.0097  0.0006  0.0007  0.0097  2.0776
   5.  C  2.0075  0.0089  0.0089  0.0035  0.0089
   6.  C  0.0097  2.0776  0.0124  0.0097  0.0006
   7.  C  0.0097  0.0124  2.0776  0.0097  0.0007
   8.  C  0.0035  0.0089  0.0089  2.0075  0.0089
   9.  O  0.0013  0.0002  0.0001  0.0013  0.0020
  10.  O  0.0000  0.0013  0.0013  0.0005  0.0013
  11.  O  0.0013  0.0000  0.0020  0.0013  0.0001
  12.  O  0.0013  0.0020  0.0000  0.0013  0.0002
  13.  O  0.0005  0.0013  0.0013  0.0000  0.0013
  14.  O  0.0013  0.0001  0.0002  0.0013  0.0000


 Wiberg bond index, Totals by atom:                                            

     Atom    1
     ---- ------
   1. Ni  3.9709
   2. Ni  3.9709
   3.  C  3.3308
   4.  C  3.3308
   5.  C  3.4637
   6.  C  3.3308
   7.  C  3.3308
   8.  C  3.4637
   9.  O  2.2262
  10.  O  2.1807
  11.  O  2.2262
  12.  O  2.2262
  13.  O  2.1807
  14.  O  2.2262


 Atom-atom overlap-weighted NAO bond order:                                    

     Atom    1       2       3       4       5       6       7       8       9
     ---- ------  ------  ------  ------  ------  ------  ------  ------  ------
   1. Ni  0.0000  0.3042  1.0232  1.0232  0.7144  0.0082  0.0082  0.7144 -0.0178
   2. Ni  0.3042  0.0000  0.0082  0.0082  0.7144  1.0232  1.0232  0.7144  0.0002
   3.  C  1.0232  0.0082  0.0000  0.0593  0.0585 -0.0041  0.0000  0.0585  1.4945
   4.  C  1.0232  0.0082  0.0593  0.0000  0.0585  0.0000 -0.0041  0.0585 -0.0017
   5.  C  0.7144  0.7144  0.0585  0.0585  0.0000  0.0585  0.0585  0.0278 -0.0019
   6.  C  0.0082  1.0232 -0.0041  0.0000  0.0585  0.0000  0.0593  0.0585  0.0002
   7.  C  0.0082  1.0232  0.0000 -0.0041  0.0585  0.0593  0.0000  0.0585  0.0000
   8.  C  0.7144  0.7144  0.0585  0.0585  0.0278  0.0585  0.0585  0.0000 -0.0019
   9.  O -0.0178  0.0002  1.4945 -0.0017 -0.0019  0.0002  0.0000 -0.0019  0.0000
  10.  O -0.0238 -0.0238 -0.0061 -0.0061  1.4445 -0.0061 -0.0061  0.0005 -0.0002
  11.  O  0.0002 -0.0178  0.0002  0.0000 -0.0019  1.4945 -0.0017 -0.0019  0.0000
  12.  O  0.0002 -0.0178  0.0000  0.0002 -0.0019 -0.0017  1.4945 -0.0019  0.0000
  13.  O -0.0238 -0.0238 -0.0061 -0.0061  0.0005 -0.0061 -0.0061  1.4445 -0.0002
  14.  O -0.0178  0.0002 -0.0017  1.4945 -0.0019  0.0000  0.0002 -0.0019 -0.0001

     Atom   10      11      12      13      14
     ---- ------  ------  ------  ------  ------
   1. Ni -0.0238  0.0002  0.0002 -0.0238 -0.0178
   2. Ni -0.0238 -0.0178 -0.0178 -0.0238  0.0002
[...]
                                                    296(r),313(r),278(r),329(r)
                                                    167(r),184(r),371(r),380(r)
                                                    151(g),92(r),276(r),327(r)
                                                    107(r),95(r),160(r),177(r)
                                                    285(r),336(r),201(r),252(r)
                                                    204(v),221(v),219(v),236(v)
                                                    261(r),346(r),262(r),347(r)
                                                    159(r),176(r),168(r),185(r)
                                                    165(r),182(r),197(r),248(r)
                                                    111(r),104(r),202(r),253(r)
                                                    364(r),367(r),363(r),366(r)
                                                    258(r),343(r),192(r),243(r)
                                                    200(r),251(r),196(r),247(r)
    66. LP*(   7)Ni   2                  0.15167     0.37952  129(g),118(g),371(r),380(r)
                                                    374(v),377(v),127(g),124(g)
                                                    196(r),247(r),208(v),225(v)
                                                    143(g),189(r),240(r),187(r)
                                                    238(r),79(r),192(r),243(r)
                                                    369(r),378(r),78(r),193(r)
                                                    244(r),161(r),178(r),199(r)
                                                    250(r),201(r),252(r),276(r)
                                                    327(r),89(r),197(r),248(r)
                                                    285(r),336(r),88(r),275(r)
                                                    326(r),278(r),329(r),202(r)
                                                    253(r),90(r),163(r),180(r)
                                                    200(r),251(r),157(r),174(r)
                                                    273(r),324(r)
    69. LP (   1) O  11                  0.99036    -0.61528  204(v),205(v),361(v),289(g)
                                                    372(g),73(r)
    70. LP (   1) O  12                  0.99036    -0.61528  221(v),222(v),362(v),306(g)
                                                    375(g),73(r)
   113. RY*(   1)Ni   2                  0.00089     1.96835   
   114. RY*(   2)Ni   2                  0.00079     1.34672   
   115. RY*(   3)Ni   2                  0.00077     1.02139   
   116. RY*(   4)Ni   2                  0.00049     0.88494   
   117. RY*(   5)Ni   2                  0.00036     1.17705   
   118. RY*(   6)Ni   2                  0.00034     0.87357   
   119. RY*(   7)Ni   2                  0.00028     0.74001   
   120. RY*(   8)Ni   2                  0.00026     1.14285   
   121. RY*(   9)Ni   2                  0.00016     1.17386   
   122. RY*(  10)Ni   2                  0.00006     2.27419   
   123. RY*(  11)Ni   2                  0.00007     1.92183   
   124. RY*(  12)Ni   2                  0.00004     2.42013   
   125. RY*(  13)Ni   2                  0.00003     2.84025   
   126. RY*(  14)Ni   2                  0.00002     3.31090   
   127. RY*(  15)Ni   2                  0.00002     2.24076   
   128. RY*(  16)Ni   2                  0.00000    11.71205   
   129. RY*(  17)Ni   2                  0.00000    12.38137   
   130. RY*(  18)Ni   2                  0.00001     0.94660   
   131. RY*(  19)Ni   2                  0.00000   116.70838   
   132. RY*(  20)Ni   2                  0.00000   353.26385   
   133. RY*(  21)Ni   2                  0.00000     6.79003   
   134. RY*(  22)Ni   2                  0.00000    32.12058   
   135. RY*(  23)Ni   2                  0.00000    11.64355   
   136. RY*(  24)Ni   2                  0.00000     6.71520   
   137. RY*(  25)Ni   2                  0.00000   562.88713   
   138. RY*(  26)Ni   2                  0.00001     1.90857   
   139. RY*(  27)Ni   2                  0.00000     6.88709   
   140. RY*(  28)Ni   2                  0.00000    32.13664   
   141. RY*(  29)Ni   2                  0.00001     2.27458   
   142. RY*(  30)Ni   2                  0.00000     6.93405   
   143. RY*(  31)Ni   2                  0.00000    32.16795   
   144. RY*(  32)Ni   2                  0.00001     2.42372   
   145. RY*(  33)Ni   2                  0.00000     6.94543   
   146. RY*(  34)Ni   2                  0.00000     3.65553   
   147. RY*(  35)Ni   2                  0.00000     3.80437   
   148. RY*(  36)Ni   2                  0.00000     3.69117   
   149. RY*(  37)Ni   2                  0.00000     3.51244   
   150. RY*(  38)Ni   2                  0.00000     3.72721   
   151. RY*(  39)Ni   2                  0.00000     3.50030   
   152. RY*(  40)Ni   2                  0.00000     3.72591   
   204. RY*(   1) C   6                  0.01159     1.03562   
   205. RY*(   2) C   6                  0.00326     3.02187   
   206. RY*(   3) C   6                  0.00168     1.28673   
   207. RY*(   4) C   6                  0.00157     1.71897   
   208. RY*(   5) C   6                  0.00065     1.45544   
   209. RY*(   6) C   6                  0.00054     1.10017   
   210. RY*(   7) C   6                  0.00006     1.24907   
   211. RY*(   8) C   6                  0.00001     3.20910   
   212. RY*(   9) C   6                  0.00002     0.78474   
   213. RY*(  10) C   6                  0.00002     1.65026   
   214. RY*(  11) C   6                  0.00001     2.34650   
   215. RY*(  12) C   6                  0.00001     1.54822   
   216. RY*(  13) C   6                  0.00001     3.68094   
   217. RY*(  14) C   6                  0.00002     0.93265   
   218. RY*(  15) C   6                  0.00001     2.06329   
   219. RY*(  16) C   6                  0.00002     2.10455   
   220. RY*(  17) C   6                  0.00000    20.74933   
   221. RY*(   1) C   7                  0.01159     1.03562   
   222. RY*(   2) C   7                  0.00326     3.02187   
   223. RY*(   3) C   7                  0.00168     1.28673   
   224. RY*(   4) C   7                  0.00157     1.71897   
   225. RY*(   5) C   7                  0.00065     1.45544   
   226. RY*(   6) C   7                  0.00054     1.10017   
   227. RY*(   7) C   7                  0.00006     1.24907   
   228. RY*(   8) C   7                  0.00001     3.20910   
   229. RY*(   9) C   7                  0.00002     0.78474   
   230. RY*(  10) C   7                  0.00002     1.65026   
   231. RY*(  11) C   7                  0.00001     2.34650   
   232. RY*(  12) C   7                  0.00001     1.54822   
   233. RY*(  13) C   7                  0.00001     3.68094   
   234. RY*(  14) C   7                  0.00002     0.93265   
   235. RY*(  15) C   7                  0.00001     2.06329   
   236. RY*(  16) C   7                  0.00002     2.10455   
   237. RY*(  17) C   7                  0.00000    20.74933   
   289. RY*(   1) O  11                  0.00262     0.85414   
   290. RY*(   2) O  11                  0.00068     0.63309   
   291. RY*(   3) O  11                  0.00049     0.62329   
   292. RY*(   4) O  11                  0.00007     1.25755   
   293. RY*(   5) O  11                  0.00003     1.10021   
   294. RY*(   6) O  11                  0.00000     5.20126   
   295. RY*(   7) O  11                  0.00001     2.01222   
   296. RY*(   8) O  11                  0.00001     1.36119   
   297. RY*(   9) O  11                  0.00000     5.10104   
   298. RY*(  10) O  11                  0.00000    49.31756   
   299. RY*(  11) O  11                  0.00001     1.21125   
   300. RY*(  12) O  11                  0.00000     4.93280   
   301. RY*(  13) O  11                  0.00000     3.38633   
   302. RY*(  14) O  11                  0.00000     2.99645   
   303. RY*(  15) O  11                  0.00000     3.10042   
   304. RY*(  16) O  11                  0.00000     3.20603   
   305. RY*(  17) O  11                  0.00000     3.03487   
   306. RY*(   1) O  12                  0.00262     0.85414   
   307. RY*(   2) O  12                  0.00068     0.63309   
   308. RY*(   3) O  12                  0.00049     0.62329   
   309. RY*(   4) O  12                  0.00007     1.25755   
   310. RY*(   5) O  12                  0.00003     1.10021   
   311. RY*(   6) O  12                  0.00000     5.20126   
   312. RY*(   7) O  12                  0.00001     2.01222   
   313. RY*(   8) O  12                  0.00001     1.36119   
   314. RY*(   9) O  12                  0.00000     5.10104   
   315. RY*(  10) O  12                  0.00000    49.31756   
   316. RY*(  11) O  12                  0.00001     1.21125   
   317. RY*(  12) O  12                  0.00000     4.93280   
   318. RY*(  13) O  12                  0.00000     3.38633   
   319. RY*(  14) O  12                  0.00000     2.99645   
   320. RY*(  15) O  12                  0.00000     3.10042   
   321. RY*(  16) O  12                  0.00000     3.20603   
   322. RY*(  17) O  12                  0.00000     3.03487   
   361. BD*(   1)Ni   2 - C   6          0.00337     0.64271   
   362. BD*(   1)Ni   2 - C   7          0.00337     0.64271   
   372. BD*(   1) C   6 - O  11          0.00623     0.81573   
   373. BD*(   2) C   6 - O  11          0.06906     0.16999   
   374. BD*(   3) C   6 - O  11          0.05052     0.16254   
   375. BD*(   1) C   7 - O  12          0.00623     0.81573   
   376. BD*(   2) C   7 - O  12          0.06906     0.16999   
   377. BD*(   3) C   7 - O  12          0.05052     0.16254   
       -------------------------------
              Total Lewis   27.55910  ( 97.8029%)
        Valence non-Lewis    0.56769  (  2.0146%)
        Rydberg non-Lewis    0.05142  (  0.1825%)
       -------------------------------
            Total unit  2   28.17821  (100.0000%)
           Charge unit  2   -0.17821
 Sorting of NBOs:                   34   25   35   26   30   39   32   41   28   37
 Sorting of NBOs:                   49   51   54   52   50   53   48   45   46   44
 Sorting of NBOs:                   47   43   27   36   40   31   42   33   29   38
 Sorting of NBOs:                    7   19   10   16   13   22   67   72   69   70
 Sorting of NBOs:                   68   71    2    1    6    5    8   17   11   20
 Sorting of NBOs:                   12    9   18   21   14   23   15   24    3    4
 Sorting of NBOs:                   55   56   61   60   62   63   58   64   57   59
 Sorting of NBOs:                  368  374  365  377  370  379  371  380  376  367
 Sorting of NBOs:                  373  364   66  257  308  342  291  307  341  290
 Sorting of NBOs:                  256  249  198  357  358  361  362  247  196  360
 Sorting of NBOs:                  359  274  325  119   79   87  212  178  229  161
 Sorting of NBOs:                   65  372  366  375  363  369  378  255  306  289
 Sorting of NBOs:                  340   78  118  116   76  273  324  241  190  166
 Sorting of NBOs:                  234  217  183  130  238  187  243  192  275  326
 Sorting of NBOs:                   75  115  153  204  221  170  226  175  209  158
 Sorting of NBOs:                  310  293  344  259  120   80  121   81   77  117
 Sorting of NBOs:                  265  316  350  299  227  159  176  210  309  292
 Sorting of NBOs:                  343  258  327  276  223  206  172  155  114  262
 Sorting of NBOs:                  347  313  296  272  323   74  174  208  225  157
 Sorting of NBOs:                  164  232  181  215  179  162  230  213  248  197
 Sorting of NBOs:                  242  191  240  189  224  173  156  207  246  195
 Sorting of NBOs:                  194  245  279  330  281  332  278  329   98  138
 Sorting of NBOs:                  123   82   73  113  261  295  312  346  218  235
 Sorting of NBOs:                  184  167  219  168  236  185  251  200   88  127
 Sorting of NBOs:                  104  122   83  141  101  163  231  180  214  124
 Sorting of NBOs:                   84  144  199  250  203  254  188  239  244  193
 Sorting of NBOs:                  125   85  335  284  338  287  268  302  353  319
 Sorting of NBOs:                  154  205  171  222  305  271  356  322  269  303
 Sorting of NBOs:                  354  320  270  355  304  321  228  177  160  211
 Sorting of NBOs:                  337  286  285  336  126   86  267  352  318  301
 Sorting of NBOs:                  201  252  151  111  149  109  146  106  182  233
 Sorting of NBOs:                  216  165  148  152  108  110  150  112  147  107
 Sorting of NBOs:                  339  288  331  280  328  277  334  283  300  351
 Sorting of NBOs:                  317  266  297  263  348  314  311  294  345  260
 Sorting of NBOs:                  136   96   93  133  139   99  142  102  145  105
 Sorting of NBOs:                   97  135  128   91   89  129  169  220  237  186
 Sorting of NBOs:                  253  202  100  134  140   92   90  143  349  315
 Sorting of NBOs:                  298  264  282  333  131  103   94  132  137   95
 Reordering of NBOs for storage:    34   25   35   26   30   39   32   41   28   37
 Reordering of NBOs for storage:    49   51   54   52   50   53   48   45   46   44
 Reordering of NBOs for storage:    47   43   27   36   40   31   42   33   29   38
 Reordering of NBOs for storage:     7   19   10   16   13   22   67   72   69   70
 Reordering of NBOs for storage:    68   71    2    1    6    5    8   17   11   20
 Reordering of NBOs for storage:    12    9   18   21   14   23   15   24    3    4
 Reordering of NBOs for storage:    55   56   61   60   62   63   58   64   57   59
 Reordering of NBOs for storage:   368  374  365  377  370  379  371  380  376  367
 Reordering of NBOs for storage:   373  364   66  357  358  361  362  360  359   65
 Reordering of NBOs for storage:   372  366  375  363  369  378  257  308  342  291
 Reordering of NBOs for storage:   307  341  290  256  249  198  247  196  274  325
 Reordering of NBOs for storage:   119   79   87  212  178  229  161  255  306  289
 Reordering of NBOs for storage:   340   78  118  116   76  273  324  241  190  166
 Reordering of NBOs for storage:   234  217  183  130  238  187  243  192  275  326
 Reordering of NBOs for storage:    75  115  153  204  221  170  226  175  209  158
 Reordering of NBOs for storage:   310  293  344  259  120   80  121   81   77  117
 Reordering of NBOs for storage:   265  316  350  299  227  159  176  210  309  292
 Reordering of NBOs for storage:   343  258  327  276  223  206  172  155  114  262
 Reordering of NBOs for storage:   347  313  296  272  323   74  174  208  225  157
 Reordering of NBOs for storage:   164  232  181  215  179  162  230  213  248  197
 Reordering of NBOs for storage:   242  191  240  189  224  173  156  207  246  195
 Reordering of NBOs for storage:   194  245  279  330  281  332  278  329   98  138
 Reordering of NBOs for storage:   123   82   73  113  261  295  312  346  218  235
 Reordering of NBOs for storage:   184  167  219  168  236  185  251  200   88  127
 Reordering of NBOs for storage:   104  122   83  141  101  163  231  180  214  124
 Reordering of NBOs for storage:    84  144  199  250  203  254  188  239  244  193
 Reordering of NBOs for storage:   125   85  335  284  338  287  268  302  353  319
 Reordering of NBOs for storage:   154  205  171  222  305  271  356  322  269  303
 Reordering of NBOs for storage:   354  320  270  355  304  321  228  177  160  211
 Reordering of NBOs for storage:   337  286  285  336  126   86  267  352  318  301
 Reordering of NBOs for storage:   201  252  151  111  149  109  146  106  182  233
 Reordering of NBOs for storage:   216  165  148  152  108  110  150  112  147  107
 Reordering of NBOs for storage:   339  288  331  280  328  277  334  283  300  351
 Reordering of NBOs for storage:   317  266  297  263  348  314  311  294  345  260
 Reordering of NBOs for storage:   136   96   93  133  139   99  142  102  145  105
 Reordering of NBOs for storage:    97  135  128   91   89  129  169  220  237  186
 Reordering of NBOs for storage:   253  202  100  134  140   92   90  143  349  315
 Reordering of NBOs for storage:   298  264  282  333  131  103   94  132  137   95
 Labels of output orbitals:  CR  CR  CR  CR  CR  CR  CR  CR  CR  CR  CR  CR  CR  CR  CR  CR  CR  CR  CR  CR  
 Labels of output orbitals:  CR  CR  CR  CR  CR  CR  CR  CR  CR  CR  BD  BD  BD  BD  BD  BD  LP  LP  LP  LP  
 Labels of output orbitals:  LP  LP  BD  BD  BD  BD  BD  BD  BD  BD  BD  BD  BD  BD  BD  BD  BD  BD  BD  BD  
 Labels of output orbitals:  LP  LP  LP  LP  LP  LP  LP  LP  LP  LP  BD* BD* BD* BD* BD* BD* BD* BD* BD* BD* 
 Labels of output orbitals:  BD* BD* LP* BD* BD* BD* BD* BD* BD* LP* BD* BD* BD* BD* BD* BD* RY* RY* RY* RY* 
 Labels of output orbitals:  RY* RY* RY* RY* RY* RY* RY* RY* RY* RY* RY* RY* RY* RY* RY* RY* RY* RY* RY* RY* 
 Labels of output orbitals:  RY* RY* RY* RY* RY* RY* RY* RY* RY* RY* RY* RY* RY* RY* RY* RY* RY* RY* RY* RY* 
 Labels of output orbitals:  RY* RY* RY* RY* RY* RY* RY* RY* RY* RY* RY* RY* RY* RY* RY* RY* RY* RY* RY* RY* 
 Labels of output orbitals:  RY* RY* RY* RY* RY* RY* RY* RY* RY* RY* RY* RY* RY* RY* RY* RY* RY* RY* RY* RY* 
 Labels of output orbitals:  RY* RY* RY* RY* RY* RY* RY* RY* RY* RY* RY* RY* RY* RY* RY* RY* RY* RY* RY* RY* 
 Labels of output orbitals:  RY* RY* RY* RY* RY* RY* RY* RY* RY* RY* RY* RY* RY* RY* RY* RY* RY* RY* RY* RY* 
 Labels of output orbitals:  RY* RY* RY* RY* RY* RY* RY* RY* RY* RY* RY* RY* RY* RY* RY* RY* RY* RY* RY* RY* 
 Labels of output orbitals:  RY* RY* RY* RY* RY* RY* RY* RY* RY* RY* RY* RY* RY* RY* RY* RY* RY* RY* RY* RY* 
 Labels of output orbitals:  RY* RY* RY* RY* RY* RY* RY* RY* RY* RY* RY* RY* RY* RY* RY* RY* RY* RY* RY* RY* 
 Labels of output orbitals:  RY* RY* RY* RY* RY* RY* RY* RY* RY* RY* RY* RY* RY* RY* RY* RY* RY* RY* RY* RY* 
 Labels of output orbitals:  RY* RY* RY* RY* RY* RY* RY* RY* RY* RY* RY* RY* RY* RY* RY* RY* RY* RY* RY* RY* 
 Labels of output orbitals:  RY* RY* RY* RY* RY* RY* RY* RY* RY* RY* RY* RY* RY* RY* RY* RY* RY* RY* RY* RY* 
 Labels of output orbitals:  RY* RY* RY* RY* RY* RY* RY* RY* RY* RY* RY* RY* RY* RY* RY* RY* RY* RY* RY* RY* 
 Labels of output orbitals:  RY* RY* RY* RY* RY* RY* RY* RY* RY* RY* RY* RY* RY* RY* RY* RY* RY* RY* RY* RY* 
 1|1|UNPC-CCX|SP|UB3LYP|6-311+G(d)|C6Ni2O6(1-,2)|CCX|23-Oct-2016|0||# u
 b3lyp/6-311+g(d) guess=read geom=allcheck pop=(nboread,savenbo)||Title
  Card Required||-1,2|Ni,-1.258939,0.,0.|Ni,1.258939,0.,0.|C,-2.189295,
 1.534275,0.|C,-2.189295,-1.534275,0.|C,0.,0.,1.541471|C,2.189295,1.534
 275,0.|C,2.189295,-1.534275,0.|C,0.,0.,-1.541471|O,-2.849284,2.481342,
 0.|O,0.,0.,2.707642|O,2.849284,2.481342,0.|O,2.849284,-2.481342,0.|O,0
 .,0.,-2.707642|O,-2.849284,-2.481342,0.||Version=IA32W-G09RevA.02|Stat
 e=2-B2G|HF=-3696.9984283|S2=0.769332|S2-1=0.|S2A=0.750312|RMSD=9.254e-
 009|Dipole=0.,0.,0.|Quadrupole=-4.8180148,0.6752791,4.1427357,0.,0.,0.
 |PG=D02H [C2(Ni1.Ni1),C2"(O1C1.C1O1),SG"(C4O4)]||@


 DEFINE YOUR TERMS, YOU WILL PERMIT ME AGAIN TO SAY, 
 OR WE SHALL NEVER UNDERSTAND ONE ANOTHER.

                                    -- VOLTAIRE
 Job cpu time:  0 days  0 hours  4 minutes 58.0 seconds.
 File lengths (MBytes):  RWF=    137 Int=      0 D2E=      0 Chk=     12 Scr=      1
 Normal termination of Gaussian 09 at Sun Oct 23 18:02:50 2016.
