 Entering Link 1 = C:\G09W\l1.exe PID=      9080.
  
 Copyright (c) 1988,1990,1992,1993,1995,1998,2003,2009, Gaussian, Inc.
                  All Rights Reserved.
  
 This is part of the Gaussian(R) 09 program.  It is based on
 the Gaussian(R) 03 system (copyright 2003, Gaussian, Inc.),
 the Gaussian(R) 98 system (copyright 1998, Gaussian, Inc.),
 the Gaussian(R) 94 system (copyright 1995, Gaussian, Inc.),
 the Gaussian 92(TM) system (copyright 1992, Gaussian, Inc.),
 the Gaussian 90(TM) system (copyright 1990, Gaussian, Inc.),
 the Gaussian 88(TM) system (copyright 1988, Gaussian, Inc.),
 the Gaussian 86(TM) system (copyright 1986, Carnegie Mellon
 University), and the Gaussian 82(TM) system (copyright 1983,
 Carnegie Mellon University). Gaussian is a federally registered
 trademark of Gaussian, Inc.
  
 This software contains proprietary and confidential information,
 including trade secrets, belonging to Gaussian, Inc.
  
 This software is provided under written license and may be
 used, copied, transmitted, or stored only in accord with that
 written license.
  
 The following legend is applicable only to US Government
 contracts under FAR:
  
                    RESTRICTED RIGHTS LEGEND
  
 Use, reproduction and disclosure by the US Government is
 subject to restrictions as set forth in subparagraphs (a)
 and (c) of the Commercial Computer Software - Restricted
 Rights clause in FAR 52.227-19.
  
 Gaussian, Inc.
 340 Quinnipiac St., Bldg. 40, Wallingford CT 06492
  
  
 ---------------------------------------------------------------
 Warning -- This program may not be used in any manner that
 competes with the business of Gaussian, Inc. or will provide
 assistance to any competitor of Gaussian, Inc.  The licensee
 of this program is prohibited from giving any competitor of
 Gaussian, Inc. access to this program.  By using this program,
 the user acknowledges that Gaussian, Inc. is engaged in the
 business of creating and licensing software in the field of
 computational chemistry and represents and warrants to the
 licensee that it is not a competitor of Gaussian, Inc. and that
 it will not use this program in any manner prohibited above.
 ---------------------------------------------------------------
  

 Cite this work as:
 Gaussian 09, Revision A.02,
 M. J. Frisch, G. W. Trucks, H. B. Schlegel, G. E. Scuseria, 
 M. A. Robb, J. R. Cheeseman, G. Scalmani, V. Barone, B. Mennucci, 
 G. A. Petersson, H. Nakatsuji, M. Caricato, X. Li, H. P. Hratchian, 
 A. F. Izmaylov, J. Bloino, G. Zheng, J. L. Sonnenberg, M. Hada, 
 M. Ehara, K. Toyota, R. Fukuda, J. Hasegawa, M. Ishida, T. Nakajima, 
 Y. Honda, O. Kitao, H. Nakai, T. Vreven, J. A. Montgomery, Jr., 
 J. E. Peralta, F. Ogliaro, M. Bearpark, J. J. Heyd, E. Brothers, 
 K. N. Kudin, V. N. Staroverov, R. Kobayashi, J. Normand, 
 K. Raghavachari, A. Rendell, J. C. Burant, S. S. Iyengar, J. Tomasi, 
 M. Cossi, N. Rega, J. M. Millam, M. Klene, J. E. Knox, J. B. Cross, 
 V. Bakken, C. Adamo, J. Jaramillo, R. Gomperts, R. E. Stratmann, 
 O. Yazyev, A. J. Austin, R. Cammi, C. Pomelli, J. W. Ochterski, 
 R. L. Martin, K. Morokuma, V. G. Zakrzewski, G. A. Voth, 
 P. Salvador, J. J. Dannenberg, S. Dapprich, A. D. Daniels, 
 O. Farkas, J. B. Foresman, J. V. Ortiz, J. Cioslowski, 
 and D. J. Fox, Gaussian, Inc., Wallingford CT, 2009.
 
 ******************************************
 Gaussian 09:  IA32W-G09RevA.02 11-Jun-2009
                23-Oct-2016 
 ******************************************
 %chk=E:\theoretical calculation\Ni2COn-\6311+Gd Use\Ni2CO5-_212_A_2th_6_C2_1_nob
 ig2_chknoint_NBO.chk
 %mem=400MB
 ------------------------------------------------------------------
 # ub3lyp/6-311+g(d) guess=read geom=allcheck pop=(nboread,savenbo)
 ------------------------------------------------------------------
 1/29=7,38=1/1;
 2/12=2,40=1/2;
 3/5=4,6=6,7=11,11=2,14=-4,16=1,25=1,30=1,74=-5,116=2/1,2,3;
 4/5=1/1;
 5/5=2,38=6/2;
 6/7=2,8=2,9=2,10=2,28=1,40=1,73=1/1,7;
 99/5=1,9=1/99;
 -------------------
 Title Card Required
 -------------------
 No Z-matrix found on checkpoint file.
 Cartesian coordinates read from the checkpoint file:
 E:\theoretical calculation\Ni2COn-\6311+Gd Use\Ni2CO5-_212_A_2th_6_C2_1_nobig2_chknoint_NBO.chk
 Charge = -1 Multiplicity = 2
  Ni                                                0.000000000000      1.231990000000      0.031814000000
  Ni                                                0.000000000000     -1.231990000000      0.031814000000
  C                                                 0.597858000000      2.733456000000      0.766975000000
  C                                                -0.751323000000      1.379492000000     -1.594741000000
  C                                                 0.000000000000      0.000000000000      1.497730000000
  C                                                 0.751323000000     -1.379492000000     -1.594741000000
  C                                                -0.597858000000     -2.733456000000      0.766975000000
  O                                                 0.964576000000      3.732486000000      1.216812000000
  O                                                 0.000000000000      0.000000000000      2.677168000000
  O                                                 1.283823000000     -1.539830000000     -2.607569000000
  O                                                -0.964576000000     -3.732486000000      1.216812000000
  O                                                -1.283823000000      1.539830000000     -2.607569000000
 Recover connectivity data from disk.
                          Input orientation:                          
 ---------------------------------------------------------------------
 Center     Atomic      Atomic             Coordinates (Angstroms)
 Number     Number       Type             X           Y           Z
 ---------------------------------------------------------------------
      1         28           0        0.000000    1.231990    0.031814
      2         28           0        0.000000   -1.231990    0.031814
      3          6           0        0.597858    2.733456    0.766975
      4          6           0       -0.751323    1.379492   -1.594741
      5          6           0        0.000000    0.000000    1.497730
      6          6           0        0.751323   -1.379492   -1.594741
      7          6           0       -0.597858   -2.733456    0.766975
      8          8           0        0.964576    3.732486    1.216812
      9          8           0        0.000000    0.000000    2.677168
     10          8           0        1.283823   -1.539830   -2.607569
     11          8           0       -0.964576   -3.732486    1.216812
     12          8           0       -1.283823    1.539830   -2.607569
 ---------------------------------------------------------------------
                    Distance matrix (angstroms):
                    1          2          3          4          5
     1  Ni   0.000000
     2  Ni   2.463980   0.000000
     3  C    1.775471   4.077089   0.000000
     4  C    1.797755   3.167018   3.038291   0.000000
     5  C    1.914865   1.914865   2.891923   3.468553   0.000000
     6  C    3.167018   1.797755   4.745271   3.141646   3.468553
     7  C    4.077089   1.775471   5.596147   4.745271   2.891923
     8  O    2.930377   5.194290   1.155377   4.047928   3.865330
     9  O    2.918167   2.918167   3.387928   4.551559   1.179438
    10  O    4.037020   2.951154   5.488084   3.700011   4.568671
    11  O    5.194290   2.930377   6.667230   5.838033   3.865330
    12  O    2.951154   4.037020   4.043886   1.155459   4.568671
                    6          7          8          9         10
     6  C    0.000000
     7  C    3.038291   0.000000
     8  O    5.838033   6.667230   0.000000
     9  O    4.551559   3.387928   4.122438   0.000000
    10  O    1.155459   4.043886   6.521129   5.652232   0.000000
    11  O    4.047928   1.155377   7.710216   4.122438   4.948629
    12  O    3.700011   5.488084   4.948629   5.652232   4.009627
                   11         12
    11  O    0.000000
    12  O    6.521129   0.000000
 Stoichiometry    C5Ni2O5(1-,2)
 Framework group  C2[C2(CO),X(C4Ni2O4)]
 Deg. of freedom    15
 Full point group                 C2      NOp   2
 Largest Abelian subgroup         C2      NOp   2
 Largest concise Abelian subgroup C2      NOp   2
                         Standard orientation:                         
 ---------------------------------------------------------------------
 Center     Atomic      Atomic             Coordinates (Angstroms)
 Number     Number       Type             X           Y           Z
 ---------------------------------------------------------------------
      1         28           0        0.000000    1.231990    0.031814
      2         28           0        0.000000   -1.231990    0.031814
      3          6           0        0.597858    2.733456    0.766975
      4          6           0       -0.751323    1.379492   -1.594741
      5          6           0        0.000000    0.000000    1.497730
      6          6           0        0.751323   -1.379492   -1.594741
      7          6           0       -0.597858   -2.733456    0.766975
      8          8           0        0.964576    3.732486    1.216812
      9          8           0        0.000000    0.000000    2.677168
     10          8           0        1.283823   -1.539830   -2.607569
     11          8           0       -0.964576   -3.732486    1.216812
     12          8           0       -1.283823    1.539830   -2.607569
 ---------------------------------------------------------------------
 Rotational constants (GHZ):      0.8698655      0.4920956      0.3585718
 Standard basis: 6-311+G(d) (5D, 7F)
 There are   170 symmetry adapted basis functions of A   symmetry.
 There are   166 symmetry adapted basis functions of B   symmetry.
 Integral buffers will be    262144 words long.
 Raffenetti 2 integral format.
 Two-electron integral symmetry is turned on.
   336 basis functions,   548 primitive gaussians,   360 cartesian basis functions
    64 alpha electrons       63 beta electrons
       nuclear repulsion energy      1250.7030812654 Hartrees.
 NAtoms=   12 NActive=   12 NUniq=    7 SFac= 2.20D+00 NAtFMM=   80 NAOKFM=F Big=F
 One-electron integrals computed using PRISM.
 NBasis=   336 RedAO= T  NBF=   170   166
 NBsUse=   336 1.00D-06 NBFU=   170   166
 Initial guess read from the checkpoint file:  E:\theoretical calculation\Ni2COn-
 \6311+Gd Use\Ni2CO5-_212_A_2th_6_C2_1_nobig2_chknoint_NBO.chk
 B after Tr=     0.000000    0.000000    0.000000
         Rot=    1.000000    0.000000    0.000000    0.000000 Ang=   0.00 deg.
 Initial guess orbital symmetries:
 Alpha Orbitals:
       Occupied  (B) (A) (B) (A) (B) (A) (B) (A) (A) (B) (B) (A)
                 (B) (A) (A) (A) (B) (B) (A) (A) (A) (B) (A) (B)
                 (A) (B) (B) (A) (A) (B) (A) (B) (A) (A) (B) (A)
                 (B) (A) (A) (B) (A) (B) (A) (B) (A) (B) (A) (B)
                 (A) (B) (A) (B) (B) (A) (B) (B) (A) (B) (A) (A)
                 (B) (A) (B) (B)
       Virtual   (A) (A) (B) (B) (A) (B) (A) (A) (B) (B) (A) (B)
                 (B) (A) (B) (B) (A) (A) (B) (A) (A) (B) (B) (A)
                 (B) (A) (B) (B) (A) (A) (A) (B) (B) (A) (B) (B)
                 (A) (B) (A) (B) (A) (A) (A) (B) (A) (B) (B) (A)
                 (B) (A) (B) (B) (A) (A) (B) (A) (B) (A) (A) (B)
                 (A) (B) (B) (A) (A) (B) (B) (A) (A) (B) (A) (B)
                 (A) (B) (A) (A) (B) (B) (A) (B) (A) (B) (A) (B)
                 (B) (B) (A) (B) (A) (B) (B) (A) (A) (A) (A) (B)
                 (B) (A) (B) (A) (A) (B) (B) (A) (A) (B) (A) (B)
                 (B) (A) (B) (A) (B) (A) (B) (A) (B) (A) (A) (B)
                 (B) (B) (A) (A) (B) (A) (B) (A) (B) (B) (A) (A)
                 (B) (B) (A) (A) (B) (A) (B) (A) (B) (A) (A) (A)
                 (B) (B) (A) (B) (A) (B) (A) (A) (B) (B) (A) (B)
                 (B) (A) (A) (B) (A) (A) (B) (B) (A) (B) (A) (B)
                 (B) (A) (B) (A) (A) (B) (B) (A) (A) (A) (B) (A)
                 (A) (B) (B) (B) (A) (A) (B) (A) (B) (A) (B) (A)
                 (B) (A) (B) (B) (A) (B) (A) (B) (B) (A) (A) (B)
                 (A) (B) (A) (B) (A) (B) (A) (B) (A) (B) (A) (A)
                 (B) (A) (B) (B) (A) (A) (B) (B) (A) (B) (B) (A)
                 (B) (A) (A) (B) (B) (A) (A) (B) (B) (A) (A) (B)
                 (A) (B) (A) (B) (A) (B) (B) (A) (B) (A) (A) (A)
                 (B) (A) (B) (A) (B) (A) (B) (B) (A) (B) (A) (A)
                 (A) (B) (B) (A) (A) (B) (A) (B)
 Beta  Orbitals:
       Occupied  (B) (A) (B) (A) (B) (A) (B) (A) (A) (B) (B) (A)
                 (B) (A) (A) (A) (B) (B) (A) (A) (A) (B) (A) (B)
                 (A) (B) (B) (A) (A) (B) (A) (B) (A) (A) (B) (A)
                 (B) (A) (A) (B) (A) (B) (A) (B) (A) (B) (A) (B)
                 (A) (B) (A) (B) (B) (A) (B) (A) (B) (B) (A) (A)
                 (B) (A) (B)
       Virtual   (B) (A) (A) (B) (B) (A) (A) (B) (A) (B) (A) (B)
                 (B) (B) (A) (B) (B) (A) (A) (B) (A) (A) (B) (B)
                 (A) (B) (A) (B) (B) (A) (A) (B) (A) (B) (A) (B)
                 (B) (A) (B) (A) (B) (A) (A) (A) (B) (A) (B) (B)
                 (A) (B) (A) (B) (B) (A) (A) (B) (A) (B) (A) (A)
                 (B) (A) (B) (B) (A) (A) (B) (B) (A) (A) (B) (A)
                 (B) (A) (B) (A) (A) (B) (B) (A) (A) (B) (B) (A)
                 (B) (B) (B) (A) (B) (A) (B) (B) (A) (A) (A) (A)
                 (B) (B) (A) (B) (A) (A) (B) (B) (A) (A) (B) (A)
                 (B) (B) (A) (B) (A) (B) (A) (B) (A) (B) (A) (A)
                 (B) (B) (B) (A) (A) (B) (A) (B) (A) (B) (B) (A)
                 (A) (B) (B) (A) (A) (B) (A) (B) (A) (B) (A) (A)
                 (A) (B) (B) (A) (B) (A) (B) (A) (A) (B) (B) (A)
                 (B) (B) (A) (A) (B) (A) (A) (B) (B) (A) (B) (A)
                 (B) (B) (A) (B) (A) (A) (B) (B) (A) (A) (B) (A)
                 (A) (B) (A) (B) (B) (A) (A) (B) (A) (B) (A) (B)
                 (A) (B) (A) (B) (B) (A) (B) (A) (B) (B) (A) (A)
                 (B) (A) (B) (A) (B) (A) (B) (A) (B) (A) (B) (A)
                 (A) (B) (A) (B) (B) (A) (A) (B) (B) (A) (B) (B)
                 (A) (B) (A) (A) (B) (B) (A) (A) (B) (B) (A) (A)
                 (B) (A) (B) (A) (B) (A) (B) (B) (A) (B) (A) (A)
                 (A) (B) (A) (B) (A) (B) (A) (B) (B) (A) (B) (A)
                 (A) (A) (B) (B) (A) (A) (B) (A) (B)
 Initial guess <Sx>= 0.0000 <Sy>= 0.0000 <Sz>= 0.5000 <S**2>= 0.7656 S= 0.5078
 Requested convergence on RMS density matrix=1.00D-08 within 128 cycles.
 Requested convergence on MAX density matrix=1.00D-06.
 Requested convergence on             energy=1.00D-06.
 No special actions if energy rises.
 SCF Done:  E(UB3LYP) =  -3583.61583069     A.U. after    3 cycles
             Convg  =    0.1115D-08             -V/T =  2.0012
 <Sx>= 0.0000 <Sy>= 0.0000 <Sz>= 0.5000 <S**2>= 0.7656 S= 0.5078
 <L.S>= 0.000000000000E+00
 Annihilation of the first spin contaminant:
 S**2 before annihilation     0.7656,   after     0.7502

 **********************************************************************

            Population analysis using the SCF density.

 **********************************************************************

 Orbital symmetries:
 Alpha Orbitals:
       Occupied  (B) (A) (B) (A) (B) (A) (B) (A) (A) (B) (B) (A)
                 (B) (A) (A) (A) (B) (B) (A) (A) (A) (B) (A) (B)
                 (A) (B) (B) (A) (A) (B) (A) (B) (A) (A) (B) (A)
                 (B) (A) (A) (B) (A) (B) (A) (B) (A) (B) (A) (B)
                 (A) (B) (A) (B) (B) (A) (B) (B) (A) (B) (A) (A)
                 (B) (A) (B) (B)
       Virtual   (A) (A) (B) (B) (A) (B) (A) (A) (B) (B) (A) (B)
                 (B) (A) (B) (B) (A) (A) (B) (A) (A) (B) (B) (A)
                 (B) (A) (B) (B) (A) (A) (A) (B) (B) (A) (B) (B)
                 (A) (B) (A) (B) (A) (A) (A) (B) (A) (B) (B) (A)
                 (B) (A) (B) (B) (A) (A) (B) (A) (B) (A) (A) (B)
                 (A) (B) (B) (A) (A) (B) (B) (A) (A) (B) (A) (B)
                 (A) (B) (A) (A) (B) (B) (A) (B) (A) (B) (A) (B)
                 (B) (B) (A) (B) (A) (B) (B) (A) (A) (A) (A) (B)
                 (B) (A) (B) (A) (A) (B) (B) (A) (A) (B) (A) (B)
                 (B) (A) (B) (A) (B) (A) (B) (A) (B) (A) (A) (B)
                 (B) (B) (A) (A) (B) (A) (B) (A) (B) (B) (A) (A)
                 (B) (B) (A) (A) (B) (A) (B) (A) (B) (A) (A) (A)
                 (B) (B) (A) (B) (A) (B) (A) (A) (B) (B) (A) (B)
                 (B) (A) (A) (B) (A) (A) (B) (B) (A) (B) (A) (B)
                 (B) (A) (B) (A) (A) (B) (B) (A) (A) (A) (B) (A)
                 (A) (B) (B) (B) (A) (A) (B) (A) (B) (A) (B) (A)
                 (B) (A) (B) (B) (A) (B) (A) (B) (B) (A) (A) (B)
                 (A) (B) (A) (B) (A) (B) (A) (B) (A) (B) (A) (A)
                 (B) (A) (B) (B) (A) (A) (B) (B) (A) (B) (B) (A)
                 (B) (A) (A) (B) (B) (A) (A) (B) (B) (A) (A) (B)
                 (A) (B) (A) (B) (A) (B) (B) (A) (B) (A) (A) (A)
                 (B) (A) (B) (A) (B) (A) (B) (B) (A) (B) (A) (A)
                 (A) (B) (B) (A) (A) (B) (A) (B)
 Beta  Orbitals:
       Occupied  (B) (A) (B) (A) (B) (A) (B) (A) (A) (B) (B) (A)
                 (B) (A) (A) (A) (B) (B) (A) (A) (A) (B) (A) (B)
                 (A) (B) (B) (A) (A) (B) (A) (B) (A) (A) (B) (A)
                 (B) (A) (A) (B) (A) (B) (A) (B) (A) (B) (A) (B)
                 (A) (B) (A) (B) (B) (A) (B) (A) (B) (B) (A) (A)
                 (B) (A) (B)
       Virtual   (B) (A) (A) (B) (B) (A) (A) (B) (A) (B) (A) (B)
                 (B) (B) (A) (B) (B) (A) (A) (B) (A) (A) (B) (B)
                 (A) (B) (A) (B) (B) (A) (A) (B) (A) (B) (A) (B)
                 (B) (A) (B) (A) (B) (A) (A) (A) (B) (A) (B) (B)
                 (A) (B) (A) (B) (B) (A) (A) (B) (A) (B) (A) (A)
                 (B) (A) (B) (B) (A) (A) (B) (B) (A) (A) (B) (A)
                 (B) (A) (B) (A) (A) (B) (B) (A) (A) (B) (B) (A)
                 (B) (B) (B) (A) (B) (A) (B) (B) (A) (A) (A) (A)
                 (B) (B) (A) (B) (A) (A) (B) (B) (A) (A) (B) (A)
                 (B) (B) (A) (B) (A) (B) (A) (B) (A) (B) (A) (A)
                 (B) (B) (B) (A) (A) (B) (A) (B) (A) (B) (B) (A)
                 (A) (B) (B) (A) (A) (B) (A) (B) (A) (B) (A) (A)
                 (A) (B) (B) (A) (B) (A) (B) (A) (A) (B) (B) (A)
                 (B) (B) (A) (A) (B) (A) (A) (B) (B) (A) (B) (A)
                 (B) (B) (A) (B) (A) (A) (B) (B) (A) (A) (B) (A)
                 (A) (B) (A) (B) (B) (A) (A) (B) (A) (B) (A) (B)
                 (A) (B) (A) (B) (B) (A) (B) (A) (B) (B) (A) (A)
                 (B) (A) (B) (A) (B) (A) (B) (A) (B) (A) (B) (A)
                 (A) (B) (A) (B) (B) (A) (A) (B) (B) (A) (B) (B)
                 (A) (B) (A) (A) (B) (B) (A) (A) (B) (B) (A) (A)
                 (B) (A) (B) (A) (B) (A) (B) (B) (A) (B) (A) (A)
                 (A) (B) (A) (B) (A) (B) (A) (B) (B) (A) (B) (A)
                 (A) (A) (B) (B) (A) (A) (B) (A) (B)
 The electronic state is 2-B.
 Alpha  occ. eigenvalues -- -299.67230-299.67230 -35.59980 -35.59980 -31.04912
 Alpha  occ. eigenvalues --  -31.04912 -31.04613 -31.04613 -31.03552 -31.03552
 Alpha  occ. eigenvalues --  -19.07009 -19.07009 -19.06635 -19.06635 -19.02270
 Alpha  occ. eigenvalues --  -10.15019 -10.15019 -10.14677 -10.14677 -10.12293
 Alpha  occ. eigenvalues --   -3.85956  -3.85925  -2.46096  -2.46074  -2.45653
 Alpha  occ. eigenvalues --   -2.45381  -2.43306  -2.43301  -1.00385  -1.00384
 Alpha  occ. eigenvalues --   -1.00061  -1.00012  -0.95206  -0.45247  -0.44415
 Alpha  occ. eigenvalues --   -0.43698  -0.43422  -0.42138  -0.34571  -0.33931
 Alpha  occ. eigenvalues --   -0.33056  -0.32958  -0.32897  -0.32852  -0.32701
 Alpha  occ. eigenvalues --   -0.32593  -0.32307  -0.31766  -0.31004  -0.30254
 Alpha  occ. eigenvalues --   -0.30145  -0.29443  -0.28410  -0.13863  -0.13692
 Alpha  occ. eigenvalues --   -0.13462  -0.13412  -0.12900  -0.11642  -0.11125
 Alpha  occ. eigenvalues --   -0.11069  -0.10086  -0.09014  -0.01088
 Alpha virt. eigenvalues --    0.05595   0.09083   0.09209   0.09965   0.10781
 Alpha virt. eigenvalues --    0.11415   0.11459   0.11778   0.12380   0.13019
 Alpha virt. eigenvalues --    0.13306   0.13617   0.14589   0.15176   0.15763
 Alpha virt. eigenvalues --    0.16553   0.16717   0.17043   0.17739   0.17980
 Alpha virt. eigenvalues --    0.18474   0.19329   0.20820   0.21249   0.21556
 Alpha virt. eigenvalues --    0.22069   0.23642   0.24339   0.24844   0.25025
 Alpha virt. eigenvalues --    0.26866   0.26955   0.28382   0.29256   0.29793
 Alpha virt. eigenvalues --    0.32492   0.32864   0.34184   0.35032   0.35644
 Alpha virt. eigenvalues --    0.35968   0.37089   0.37442   0.37974   0.38475
 Alpha virt. eigenvalues --    0.38811   0.39556   0.40027   0.40779   0.41016
 Alpha virt. eigenvalues --    0.41141   0.41614   0.42129   0.42678   0.42687
 Alpha virt. eigenvalues --    0.44276   0.44506   0.44712   0.45019   0.46234
 Alpha virt. eigenvalues --    0.46443   0.46939   0.48420   0.51442   0.54990
 Alpha virt. eigenvalues --    0.55714   0.58858   0.60576   0.60997   0.61263
 Alpha virt. eigenvalues --    0.63038   0.64738   0.65728   0.70359   0.70380
 Alpha virt. eigenvalues --    0.72198   0.72696   0.73956   0.74083   0.74913
 Alpha virt. eigenvalues --    0.74979   0.76498   0.79778   0.80329   0.81478
 Alpha virt. eigenvalues --    0.84002   0.84548   0.88748   0.89829   0.94360
 Alpha virt. eigenvalues --    0.94796   0.95140   0.95738   0.97347   0.99232
 Alpha virt. eigenvalues --    0.99868   1.03462   1.08241   1.09184   1.09539
 Alpha virt. eigenvalues --    1.13496   1.13536   1.21813   1.22097   1.23248
 Alpha virt. eigenvalues --    1.23689   1.24834   1.25457   1.26291   1.26707
 Alpha virt. eigenvalues --    1.26805   1.26858   1.28148   1.29801   1.29966
 Alpha virt. eigenvalues --    1.32108   1.36686   1.39550   1.41377   1.41949
 Alpha virt. eigenvalues --    1.45284   1.46721   1.47179   1.47816   1.50667
 Alpha virt. eigenvalues --    1.54172   1.54386   1.56057   1.56355   1.58220
 Alpha virt. eigenvalues --    1.59554   1.62266   1.63639   1.67528   1.69885
 Alpha virt. eigenvalues --    1.72457   1.74353   1.75028   1.77418   1.79813
 Alpha virt. eigenvalues --    1.82307   1.84825   1.89856   1.91786   1.95350
 Alpha virt. eigenvalues --    1.96177   1.96729   1.99728   2.00685   2.03337
 Alpha virt. eigenvalues --    2.04669   2.06806   2.10411   2.15111   2.19900
 Alpha virt. eigenvalues --    2.27934   2.30564   2.33667   2.46447   2.69226
 Alpha virt. eigenvalues --    2.77465   2.80610   2.80683   2.81624   2.82558
 Alpha virt. eigenvalues --    2.83948   2.85521   2.86941   2.91497   2.92131
 Alpha virt. eigenvalues --    2.92401   2.92507   2.92737   2.92819   2.93122
 Alpha virt. eigenvalues --    2.93140   2.93586   2.94315   2.94383   2.97059
 Alpha virt. eigenvalues --    3.00752   3.01092   3.11723   3.26912   3.28221
 Alpha virt. eigenvalues --    3.30458   3.33849   3.34565   3.47291   3.47395
 Alpha virt. eigenvalues --    3.47962   3.48016   3.48816   3.49841   3.51676
 Alpha virt. eigenvalues --    3.51971   3.54357   3.57351   3.73508   3.76884
 Alpha virt. eigenvalues --    3.79595   3.80499   3.83092   3.83108   3.83395
 Alpha virt. eigenvalues --    3.84390   3.85246   3.90534   3.91568   3.93250
 Alpha virt. eigenvalues --    3.93966   4.03504   4.06132   4.10608   4.12246
 Alpha virt. eigenvalues --    4.14642   4.19499   4.44082   4.54561   5.12682
 Alpha virt. eigenvalues --    5.13119   5.14136   5.14951   5.16942   5.17095
 Alpha virt. eigenvalues --    5.17417   5.18716   5.19856   5.30343   5.74270
 Alpha virt. eigenvalues --    5.75842   5.76027   5.77523   5.77837   6.95041
 Alpha virt. eigenvalues --    6.98696   7.01478   7.02314   7.04154   7.13747
 Alpha virt. eigenvalues --    7.15353   7.20655   7.31803   7.39206   8.93490
 Alpha virt. eigenvalues --    8.96944   9.29238   9.30480   9.37981   9.46462
 Alpha virt. eigenvalues --   23.98872  24.00261  24.00984  24.02808  24.04383
 Alpha virt. eigenvalues --   30.12249  30.30734  36.45352  36.48180  36.72889
 Alpha virt. eigenvalues --   36.73095  36.77874  36.85423  50.11907  50.12479
 Alpha virt. eigenvalues --   50.13150  50.15112  50.15831 162.50645 162.65997
 Alpha virt. eigenvalues --  845.21592 845.37325
  Beta  occ. eigenvalues -- -299.67208-299.67208 -35.60259 -35.60258 -31.05127
  Beta  occ. eigenvalues --  -31.05127 -31.04837 -31.04837 -31.03758 -31.03758
  Beta  occ. eigenvalues --  -19.06873 -19.06873 -19.06460 -19.06460 -19.01831
  Beta  occ. eigenvalues --  -10.14938 -10.14938 -10.14570 -10.14570 -10.12119
  Beta  occ. eigenvalues --   -3.86506  -3.86475  -2.46661  -2.46640  -2.46248
  Beta  occ. eigenvalues --   -2.45981  -2.43864  -2.43862  -1.00153  -1.00152
  Beta  occ. eigenvalues --   -0.99762  -0.99713  -0.94453  -0.44700  -0.44037
  Beta  occ. eigenvalues --   -0.43333  -0.43041  -0.41303  -0.34199  -0.33543
  Beta  occ. eigenvalues --   -0.32870  -0.32693  -0.32348  -0.32176  -0.32156
  Beta  occ. eigenvalues --   -0.31788  -0.31603  -0.31508  -0.30780  -0.29993
  Beta  occ. eigenvalues --   -0.29659  -0.28011  -0.27496  -0.14188  -0.14097
  Beta  occ. eigenvalues --   -0.13763  -0.13659  -0.13130  -0.11772  -0.11493
  Beta  occ. eigenvalues --   -0.11166  -0.10302  -0.09024
  Beta virt. eigenvalues --    0.04008   0.06686   0.09106   0.09248   0.10070
  Beta virt. eigenvalues --    0.11169   0.11894   0.12458   0.12521   0.13279
  Beta virt. eigenvalues --    0.13329   0.13635   0.14165   0.14723   0.15202
  Beta virt. eigenvalues --    0.15824   0.16716   0.16822   0.17041   0.17724
  Beta virt. eigenvalues --    0.17997   0.18502   0.19354   0.20855   0.21249
  Beta virt. eigenvalues --    0.21540   0.22023   0.23693   0.24460   0.25013
  Beta virt. eigenvalues --    0.25338   0.27006   0.27221   0.28710   0.29399
  Beta virt. eigenvalues --    0.30242   0.32653   0.33021   0.34242   0.35124
  Beta virt. eigenvalues --    0.35788   0.36038   0.37181   0.37529   0.38074
  Beta virt. eigenvalues --    0.38559   0.38886   0.39571   0.40092   0.40819
  Beta virt. eigenvalues --    0.41216   0.41224   0.41732   0.42165   0.42686
  Beta virt. eigenvalues --    0.42902   0.44360   0.44723   0.44826   0.45330
  Beta virt. eigenvalues --    0.46277   0.46808   0.47176   0.48724   0.51758
  Beta virt. eigenvalues --    0.55484   0.56272   0.59228   0.61043   0.61345
  Beta virt. eigenvalues --    0.61646   0.63449   0.65287   0.66042   0.70709
  Beta virt. eigenvalues --    0.70715   0.72539   0.72965   0.74337   0.74378
  Beta virt. eigenvalues --    0.75270   0.75307   0.76678   0.79905   0.80595
  Beta virt. eigenvalues --    0.81993   0.84236   0.84844   0.89154   0.90211
  Beta virt. eigenvalues --    0.94714   0.95110   0.95290   0.96185   0.97449
  Beta virt. eigenvalues --    0.99483   0.99982   1.03801   1.08654   1.09499
  Beta virt. eigenvalues --    1.09963   1.13854   1.13863   1.22153   1.22366
  Beta virt. eigenvalues --    1.23578   1.23980   1.24947   1.25691   1.26405
  Beta virt. eigenvalues --    1.26803   1.26969   1.26981   1.28493   1.29947
  Beta virt. eigenvalues --    1.30223   1.32324   1.37139   1.40084   1.41918
  Beta virt. eigenvalues --    1.42327   1.45792   1.47188   1.47590   1.48231
  Beta virt. eigenvalues --    1.51002   1.54675   1.54764   1.56546   1.56776
  Beta virt. eigenvalues --    1.58684   1.60035   1.62889   1.63970   1.68030
  Beta virt. eigenvalues --    1.70075   1.72660   1.74550   1.75178   1.77561
  Beta virt. eigenvalues --    1.79976   1.82439   1.85159   1.90086   1.92074
  Beta virt. eigenvalues --    1.95497   1.96357   1.96826   1.99898   2.00912
  Beta virt. eigenvalues --    2.03473   2.04887   2.07089   2.10598   2.15221
  Beta virt. eigenvalues --    2.20020   2.28096   2.30770   2.33913   2.46646
  Beta virt. eigenvalues --    2.69490   2.77652   2.81052   2.81256   2.82128
  Beta virt. eigenvalues --    2.83102   2.84160   2.85759   2.87475   2.91796
  Beta virt. eigenvalues --    2.92469   2.92820   2.92879   2.93199   2.93292
  Beta virt. eigenvalues --    2.93613   2.93636   2.94006   2.94735   2.94852
  Beta virt. eigenvalues --    2.98252   3.01424   3.01726   3.12021   3.27066
  Beta virt. eigenvalues --    3.28378   3.30599   3.33978   3.34717   3.47573
  Beta virt. eigenvalues --    3.47585   3.48201   3.48257   3.49195   3.50157
  Beta virt. eigenvalues --    3.52004   3.52489   3.54512   3.57773   3.73322
  Beta virt. eigenvalues --    3.76774   3.79475   3.80566   3.82936   3.82968
  Beta virt. eigenvalues --    3.83268   3.84335   3.85090   3.90538   3.91751
  Beta virt. eigenvalues --    3.93421   3.94409   4.03507   4.06163   4.10508
  Beta virt. eigenvalues --    4.12161   4.14572   4.19399   4.43963   4.54467
  Beta virt. eigenvalues --    5.13301   5.13647   5.14705   5.15514   5.17110
  Beta virt. eigenvalues --    5.17301   5.17845   5.19603   5.20071   5.31300
  Beta virt. eigenvalues --    5.74556   5.76026   5.76165   5.77682   5.78052
  Beta virt. eigenvalues --    6.94727   6.98274   7.01136   7.01959   7.03810
  Beta virt. eigenvalues --    7.13527   7.15095   7.20412   7.31477   7.38854
  Beta virt. eigenvalues --    8.93221   8.96683   9.28942   9.30187   9.37700
  Beta virt. eigenvalues --    9.46179  23.99067  24.00372  24.01089  24.02910
  Beta virt. eigenvalues --   24.04491  30.11897  30.30383  36.45065  36.47900
  Beta virt. eigenvalues --   36.72587  36.72799  36.77591  36.85141  50.12329
  Beta virt. eigenvalues --   50.12641  50.13307  50.15265  50.15992 162.50514
  Beta virt. eigenvalues --  162.65865 845.21578 845.37310
          Condensed to atoms (all electrons):
              1          2          3          4          5          6
     1  Ni  27.982639  -0.015844  -0.413043  -0.211202  -0.322515   0.205707
     2  Ni  -0.015844  27.982639  -0.284661   0.205707  -0.322515  -0.211202
     3  C   -0.413043  -0.284661   7.594982  -0.530836   0.221698  -0.047572
     4  C   -0.211202   0.205707  -0.530836   7.202355  -0.260653   0.090602
     5  C   -0.322515  -0.322515   0.221698  -0.260653   6.861115  -0.260653
     6  C    0.205707  -0.211202  -0.047572   0.090602  -0.260653   7.202355
     7  C   -0.284661  -0.413043   0.019729  -0.047572   0.221698  -0.530836
     8  O    0.092433   0.015926  -0.139731   0.019044  -0.013143   0.001644
     9  O   -0.004129  -0.004129  -0.029393  -0.004707   0.296956  -0.004707
    10  O   -0.006070   0.068249   0.001579  -0.018255   0.016011  -0.042086
    11  O    0.015926   0.092433  -0.000688   0.001644  -0.013143   0.019044
    12  O    0.068249  -0.006070   0.019349  -0.042086   0.016011  -0.018255
              7          8          9         10         11         12
     1  Ni  -0.284661   0.092433  -0.004129  -0.006070   0.015926   0.068249
     2  Ni  -0.413043   0.015926  -0.004129   0.068249   0.092433  -0.006070
     3  C    0.019729  -0.139731  -0.029393   0.001579  -0.000688   0.019349
     4  C   -0.047572   0.019044  -0.004707  -0.018255   0.001644  -0.042086
     5  C    0.221698  -0.013143   0.296956   0.016011  -0.013143   0.016011
     6  C   -0.530836   0.001644  -0.004707  -0.042086   0.019044  -0.018255
     7  C    7.594982  -0.000688  -0.029393   0.019349  -0.139731   0.001579
     8  O   -0.000688   8.132212   0.004051   0.000046   0.000003   0.001639
     9  O   -0.029393   0.004051   7.993006   0.000250   0.004051   0.000250
    10  O    0.019349   0.000046   0.000250   8.089537   0.001639   0.001887
    11  O   -0.139731   0.000003   0.004051   0.001639   8.132212   0.000046
    12  O    0.001579   0.001639   0.000250   0.001887   0.000046   8.089537
 Mulliken atomic charges:
              1
     1  Ni   0.892512
     2  Ni   0.892512
     3  C   -0.411413
     4  C   -0.404040
     5  C   -0.440868
     6  C   -0.404040
     7  C   -0.411413
     8  O   -0.113437
     9  O   -0.222104
    10  O   -0.132137
    11  O   -0.113437
    12  O   -0.132137
 Sum of Mulliken atomic charges =  -1.00000
 Mulliken charges with hydrogens summed into heavy atoms:
              1
     1  Ni   0.892512
     2  Ni   0.892512
     3  C   -0.411413
     4  C   -0.404040
     5  C   -0.440868
     6  C   -0.404040
     7  C   -0.411413
     8  O   -0.113437
     9  O   -0.222104
    10  O   -0.132137
    11  O   -0.113437
    12  O   -0.132137
 Sum of Mulliken charges with hydrogens summed into heavy atoms =  -1.00000
          Atomic-Atomic Spin Densities.
              1          2          3          4          5          6
     1  Ni  -0.023467  -0.020374   0.062557   0.046941   0.053460  -0.009323
     2  Ni  -0.020374  -0.023467   0.020658  -0.009323   0.053460   0.046941
     3  C    0.062557   0.020658  -0.042507   0.065607   0.008570   0.007464
     4  C    0.046941  -0.009323   0.065607   0.022208   0.016597  -0.006061
     5  C    0.053460   0.053460   0.008570   0.016597   0.077149   0.016597
     6  C   -0.009323   0.046941   0.007464  -0.006061   0.016597   0.022208
     7  C    0.020658   0.062557  -0.003986   0.007464   0.008570   0.065607
     8  O   -0.011221  -0.001127  -0.026460  -0.002708  -0.001234  -0.000297
     9  O   -0.015344  -0.015344  -0.004344  -0.000134  -0.081417  -0.000134
    10  O   -0.001187  -0.011709  -0.000871  -0.000730  -0.000925  -0.036438
    11  O   -0.001127  -0.011221   0.000099  -0.000297  -0.001234  -0.002708
    12  O   -0.011709  -0.001187  -0.003574  -0.036438  -0.000925  -0.000730
              7          8          9         10         11         12
     1  Ni   0.020658  -0.011221  -0.015344  -0.001187  -0.001127  -0.011709
     2  Ni   0.062557  -0.001127  -0.015344  -0.011709  -0.011221  -0.001187
     3  C   -0.003986  -0.026460  -0.004344  -0.000871   0.000099  -0.003574
     4  C    0.007464  -0.002708  -0.000134  -0.000730  -0.000297  -0.036438
     5  C    0.008570  -0.001234  -0.081417  -0.000925  -0.001234  -0.000925
     6  C    0.065607  -0.000297  -0.000134  -0.036438  -0.002708  -0.000730
     7  C   -0.042507   0.000099  -0.004344  -0.003574  -0.026460  -0.000871
     8  O    0.000099   0.080458   0.001156   0.000030   0.000000   0.000102
     9  O   -0.004344   0.001156   0.245193   0.000082   0.001156   0.000082
    10  O   -0.003574   0.000030   0.000082   0.102703   0.000102  -0.000116
    11  O   -0.026460   0.000000   0.001156   0.000102   0.080458   0.000030
    12  O   -0.000871   0.000102   0.000082  -0.000116   0.000030   0.102703
 Mulliken atomic spin densities:
              1
     1  Ni   0.089863
     2  Ni   0.089863
     3  C    0.083212
     4  C    0.103125
     5  C    0.148667
     6  C    0.103125
     7  C    0.083212
     8  O    0.038796
     9  O    0.126610
    10  O    0.047365
    11  O    0.038796
    12  O    0.047365
 Sum of Mulliken atomic spin densities =   1.00000
 Electronic spatial extent (au):  <R**2>=           2915.9037
 Charge=             -1.0000 electrons
 Dipole moment (field-independent basis, Debye):
    X=              0.0000    Y=              0.0000    Z=             -0.8295  Tot=              0.8295
 Quadrupole moment (field-independent basis, Debye-Ang):
   XX=            -90.3140   YY=           -113.1495   ZZ=           -108.5959
   XY=             -2.9111   XZ=              0.0000   YZ=              0.0000
 Traceless Quadrupole moment (field-independent basis, Debye-Ang):
   XX=             13.7058   YY=             -9.1297   ZZ=             -4.5761
   XY=             -2.9111   XZ=              0.0000   YZ=              0.0000
 Octapole moment (field-independent basis, Debye-Ang**2):
  XXX=              0.0000  YYY=              0.0000  ZZZ=              6.4669  XYY=              0.0000
  XXY=              0.0000  XXZ=              8.0461  XZZ=              0.0000  YZZ=              0.0000
  YYZ=            -22.2357  XYZ=            -18.5094
 Hexadecapole moment (field-independent basis, Debye-Ang**3):
 XXXX=           -345.7381 YYYY=          -2479.2210 ZZZZ=          -1369.8726 XXXY=            -71.8190
 XXXZ=              0.0000 YYYX=           -181.1493 YYYZ=              0.0000 ZZZX=              0.0000
 ZZZY=              0.0000 XXYY=           -436.7940 XXZZ=           -280.9193 YYZZ=           -614.2905
 XXYZ=              0.0000 YYXZ=              0.0000 ZZXY=             -4.0836
 N-N= 1.250703081265D+03 E-N=-1.657779111284D+04  KE= 5.369139146315D+03
 Symmetry A    KE= 2.755965498432D+03
 Symmetry B    KE= 2.613173647883D+03
                          Isotropic Fermi Contact Couplings
        Atom                 a.u.       MegaHertz       Gauss      10(-4) cm-1
     1  Ni(61)             0.06005     -24.02719      -8.57350      -8.01461
     2  Ni(61)             0.06005     -24.02719      -8.57350      -8.01461
     3  C(13)             -0.00845      -9.50360      -3.39112      -3.17006
     4  C(13)             -0.00216      -2.42666      -0.86589      -0.80945
     5  C(13)             -0.00940     -10.56694      -3.77055      -3.52475
     6  C(13)             -0.00216      -2.42666      -0.86589      -0.80945
     7  C(13)             -0.00845      -9.50360      -3.39112      -3.17006
     8  O(17)              0.00283      -1.71804      -0.61304      -0.57308
     9  O(17)              0.01534      -9.29960      -3.31833      -3.10201
    10  O(17)              0.00451      -2.73424      -0.97565      -0.91205
    11  O(17)              0.00283      -1.71804      -0.61304      -0.57308
    12  O(17)              0.00451      -2.73424      -0.97565      -0.91205
 --------------------------------------------------------
       Center         ----  Spin Dipole Couplings  ----
                      3XX-RR        3YY-RR        3ZZ-RR
 --------------------------------------------------------
     1   Atom        0.237723     -0.230407     -0.007316
     2   Atom        0.237723     -0.230407     -0.007316
     3   Atom        0.046840     -0.040378     -0.006462
     4   Atom        0.089322     -0.046107     -0.043216
     5   Atom        0.021128      0.061427     -0.082555
     6   Atom        0.089322     -0.046107     -0.043216
     7   Atom        0.046840     -0.040378     -0.006462
     8   Atom        0.120696     -0.104430     -0.016265
     9   Atom        0.137026      0.209090     -0.346117
    10   Atom        0.187536     -0.102203     -0.085333
    11   Atom        0.120696     -0.104430     -0.016265
    12   Atom        0.187536     -0.102203     -0.085333
 --------------------------------------------------------
                        XY            XZ            YZ
 --------------------------------------------------------
     1   Atom       -0.022402     -0.323867      0.004134
     2   Atom       -0.022402      0.323867     -0.004134
     3   Atom       -0.006363     -0.053247      0.002045
     4   Atom        0.020028     -0.039335     -0.004372
     5   Atom       -0.127863      0.000000      0.000000
     6   Atom        0.020028      0.039335      0.004372
     7   Atom       -0.006363      0.053247     -0.002045
     8   Atom       -0.021870     -0.132040      0.004408
     9   Atom       -0.463164      0.000000      0.000000
    10   Atom        0.078739      0.134716      0.029688
    11   Atom       -0.021870      0.132040     -0.004408
    12   Atom        0.078739     -0.134716     -0.029688
 --------------------------------------------------------


 ---------------------------------------------------------------------------------
              Anisotropic Spin Dipole Couplings in Principal Axis System
 ---------------------------------------------------------------------------------

       Atom             a.u.   MegaHertz   Gauss  10(-4) cm-1        Axes

              Baa    -0.2404    11.481     4.097     3.830  0.4195  0.7062  0.5704
     1 Ni(61) Bbb    -0.2217    10.590     3.779     3.532 -0.3839  0.7074 -0.5935
              Bcc     0.4621   -22.071    -7.875    -7.362  0.8226 -0.0300 -0.5678
 
              Baa    -0.2404    11.481     4.097     3.830  0.4195  0.7062 -0.5704
     2 Ni(61) Bbb    -0.2217    10.590     3.779     3.532 -0.3839  0.7074  0.5935
              Bcc     0.4621   -22.071    -7.875    -7.362  0.8226 -0.0300  0.5678
 
              Baa    -0.0418    -5.607    -2.001    -1.870  0.3273  0.8335  0.4452
     3 C(13)  Bbb    -0.0383    -5.139    -1.834    -1.714  0.4130 -0.5499  0.7260
              Bcc     0.0801    10.746     3.835     3.585  0.8499 -0.0538 -0.5242
 
              Baa    -0.0542    -7.277    -2.597    -2.427  0.2845 -0.1966  0.9383
     4 C(13)  Bbb    -0.0487    -6.535    -2.332    -2.180 -0.0763  0.9710  0.2266
              Bcc     0.1029    13.812     4.928     4.607  0.9556  0.1361 -0.2613
 
              Baa    -0.0882   -11.831    -4.221    -3.946  0.7602  0.6497  0.0000
     5 C(13)  Bbb    -0.0826   -11.078    -3.953    -3.695  0.0000  0.0000  1.0000
              Bcc     0.1707    22.909     8.174     7.642 -0.6497  0.7602  0.0000
 
              Baa    -0.0542    -7.277    -2.597    -2.427 -0.2845  0.1966  0.9383
     6 C(13)  Bbb    -0.0487    -6.535    -2.332    -2.180 -0.0763  0.9710 -0.2266
              Bcc     0.1029    13.812     4.928     4.607  0.9556  0.1361  0.2613
 
              Baa    -0.0418    -5.607    -2.001    -1.870  0.3273  0.8335 -0.4452
     7 C(13)  Bbb    -0.0383    -5.139    -1.834    -1.714 -0.4130  0.5499  0.7260
              Bcc     0.0801    10.746     3.835     3.585  0.8499 -0.0538  0.5242
 
              Baa    -0.1101     7.966     2.843     2.657  0.3034  0.8711  0.3861
     8 O(17)  Bbb    -0.0923     6.679     2.383     2.228  0.4238 -0.4863  0.7642
              Bcc     0.2024   -14.645    -5.226    -4.885  0.8534 -0.0683 -0.5167
 
              Baa    -0.3461    25.045     8.937     8.354  0.0000  0.0000  1.0000
     9 O(17)  Bbb    -0.2915    21.093     7.527     7.036  0.7340  0.6791  0.0000
              Bcc     0.6376   -46.138   -16.463   -15.390 -0.6791  0.7340  0.0000
 
              Baa    -0.1409    10.197     3.639     3.401 -0.4011  0.1192  0.9082
    10 O(17)  Bbb    -0.1213     8.779     3.133     2.928 -0.1603  0.9671 -0.1977
              Bcc     0.2623   -18.976    -6.771    -6.330  0.9019  0.2249  0.3688
 
              Baa    -0.1101     7.966     2.843     2.657  0.3034  0.8711 -0.3861
    11 O(17)  Bbb    -0.0923     6.679     2.383     2.228 -0.4238  0.4863  0.7642
              Bcc     0.2024   -14.645    -5.226    -4.885  0.8534 -0.0683  0.5167
 
              Baa    -0.1409    10.197     3.639     3.401  0.4011 -0.1192  0.9082
    12 O(17)  Bbb    -0.1213     8.779     3.133     2.928 -0.1603  0.9671  0.1977
              Bcc     0.2623   -18.976    -6.771    -6.330  0.9019  0.2249 -0.3688
 

 ---------------------------------------------------------------------------------

 ******************************Gaussian NBO Version 3.1******************************
             N A T U R A L   A T O M I C   O R B I T A L   A N D
          N A T U R A L   B O N D   O R B I T A L   A N A L Y S I S
 ******************************Gaussian NBO Version 3.1******************************

       /RESON  / : Allow strongly delocalized NBO set
       /BNDIDX / : Print bond indices based on the NAO density matrix

 Analyzing the SCF density

 Job title: Title Card Required                                             

 Storage needed:    340422 in NPA,    452794 in NBO (  52428317 available)


 NATURAL POPULATIONS:  Natural atomic orbital occupancies 
                                                          
   NAO  Atom  No  lang   Type(AO)    Occupancy
 --------------------------------------------
     1   Ni    1  S      Cor( 1S)     2.00000
     2   Ni    1  S      Cor( 2S)     2.00000
     3   Ni    1  S      Cor( 3S)     1.99127
     4   Ni    1  S      Val( 4S)     0.43966
     5   Ni    1  S      Ryd( 5S)     0.00125
     6   Ni    1  S      Ryd( 6S)     0.00015
     7   Ni    1  S      Ryd( 7S)     0.00010
     8   Ni    1  S      Ryd( 8S)     0.00000
     9   Ni    1  S      Ryd(10S)     0.00000
    10   Ni    1  S      Ryd( 9S)     0.00000
    11   Ni    1  px     Cor( 2p)     2.00000
    12   Ni    1  px     Cor( 3p)     1.99751
    13   Ni    1  px     Val( 4p)     0.24246
    14   Ni    1  px     Ryd( 5p)     0.00086
    15   Ni    1  px     Ryd( 6p)     0.00010
    16   Ni    1  px     Ryd( 7p)     0.00001
    17   Ni    1  px     Ryd( 8p)     0.00000
    18   Ni    1  py     Cor( 2p)     2.00000
    19   Ni    1  py     Cor( 3p)     1.99702
    20   Ni    1  py     Val( 4p)     0.35872
    21   Ni    1  py     Ryd( 5p)     0.00084
    22   Ni    1  py     Ryd( 6p)     0.00045
    23   Ni    1  py     Ryd( 7p)     0.00001
    24   Ni    1  py     Ryd( 8p)     0.00000
    25   Ni    1  pz     Cor( 2p)     2.00000
    26   Ni    1  pz     Cor( 3p)     1.99733
    27   Ni    1  pz     Val( 4p)     0.37395
    28   Ni    1  pz     Ryd( 5p)     0.00056
    29   Ni    1  pz     Ryd( 6p)     0.00016
    30   Ni    1  pz     Ryd( 7p)     0.00002
    31   Ni    1  pz     Ryd( 8p)     0.00000
    32   Ni    1  dxy    Val( 3d)     1.86205
    33   Ni    1  dxy    Ryd( 4d)     0.00278
    34   Ni    1  dxy    Ryd( 5d)     0.00012
    35   Ni    1  dxy    Ryd( 6d)     0.00001
    36   Ni    1  dxz    Val( 3d)     1.87347
    37   Ni    1  dxz    Ryd( 4d)     0.00172
    38   Ni    1  dxz    Ryd( 5d)     0.00007
    39   Ni    1  dxz    Ryd( 6d)     0.00001
    40   Ni    1  dyz    Val( 3d)     1.76752
    41   Ni    1  dyz    Ryd( 4d)     0.00270
    42   Ni    1  dyz    Ryd( 5d)     0.00014
    43   Ni    1  dyz    Ryd( 6d)     0.00002
    44   Ni    1  dx2y2  Val( 3d)     1.89622
    45   Ni    1  dx2y2  Ryd( 4d)     0.00241
    46   Ni    1  dx2y2  Ryd( 5d)     0.00013
    47   Ni    1  dx2y2  Ryd( 6d)     0.00001
    48   Ni    1  dz2    Val( 3d)     1.80115
    49   Ni    1  dz2    Ryd( 4d)     0.00250
    50   Ni    1  dz2    Ryd( 5d)     0.00010
    51   Ni    1  dz2    Ryd( 6d)     0.00002
    52   Ni    1  f(0)   Ryd( 4f)     0.00004
    53   Ni    1  f(C1)  Ryd( 4f)     0.00003
    54   Ni    1  f(S1)  Ryd( 4f)     0.00002
    55   Ni    1  f(C2)  Ryd( 4f)     0.00004
    56   Ni    1  f(S2)  Ryd( 4f)     0.00001
    57   Ni    1  f(C3)  Ryd( 4f)     0.00003
    58   Ni    1  f(S3)  Ryd( 4f)     0.00002

    59   Ni    2  S      Cor( 1S)     2.00000
    60   Ni    2  S      Cor( 2S)     2.00000
    61   Ni    2  S      Cor( 3S)     1.99127
    62   Ni    2  S      Val( 4S)     0.43966
    63   Ni    2  S      Ryd( 5S)     0.00125
    64   Ni    2  S      Ryd( 6S)     0.00015
    65   Ni    2  S      Ryd( 7S)     0.00010
    66   Ni    2  S      Ryd( 8S)     0.00000
    67   Ni    2  S      Ryd(10S)     0.00000
    68   Ni    2  S      Ryd( 9S)     0.00000
    69   Ni    2  px     Cor( 2p)     2.00000
    70   Ni    2  px     Cor( 3p)     1.99751
    71   Ni    2  px     Val( 4p)     0.24246
    72   Ni    2  px     Ryd( 5p)     0.00086
    73   Ni    2  px     Ryd( 6p)     0.00010
    74   Ni    2  px     Ryd( 7p)     0.00001
    75   Ni    2  px     Ryd( 8p)     0.00000
    76   Ni    2  py     Cor( 2p)     2.00000
    77   Ni    2  py     Cor( 3p)     1.99702
    78   Ni    2  py     Val( 4p)     0.35872
    79   Ni    2  py     Ryd( 5p)     0.00084
    80   Ni    2  py     Ryd( 6p)     0.00045
    81   Ni    2  py     Ryd( 7p)     0.00001
    82   Ni    2  py     Ryd( 8p)     0.00000
    83   Ni    2  pz     Cor( 2p)     2.00000
    84   Ni    2  pz     Cor( 3p)     1.99733
    85   Ni    2  pz     Val( 4p)     0.37395
    86   Ni    2  pz     Ryd( 5p)     0.00056
    87   Ni    2  pz     Ryd( 6p)     0.00016
    88   Ni    2  pz     Ryd( 7p)     0.00002
    89   Ni    2  pz     Ryd( 8p)     0.00000
    90   Ni    2  dxy    Val( 3d)     1.86205
    91   Ni    2  dxy    Ryd( 4d)     0.00278
    92   Ni    2  dxy    Ryd( 5d)     0.00012
    93   Ni    2  dxy    Ryd( 6d)     0.00001
    94   Ni    2  dxz    Val( 3d)     1.87347
    95   Ni    2  dxz    Ryd( 4d)     0.00172
    96   Ni    2  dxz    Ryd( 5d)     0.00007
    97   Ni    2  dxz    Ryd( 6d)     0.00001
    98   Ni    2  dyz    Val( 3d)     1.76752
    99   Ni    2  dyz    Ryd( 4d)     0.00270
   100   Ni    2  dyz    Ryd( 5d)     0.00014
   101   Ni    2  dyz    Ryd( 6d)     0.00002
   102   Ni    2  dx2y2  Val( 3d)     1.89622
   103   Ni    2  dx2y2  Ryd( 4d)     0.00241
   104   Ni    2  dx2y2  Ryd( 5d)     0.00013
   105   Ni    2  dx2y2  Ryd( 6d)     0.00001
   106   Ni    2  dz2    Val( 3d)     1.80115
   107   Ni    2  dz2    Ryd( 4d)     0.00250
   108   Ni    2  dz2    Ryd( 5d)     0.00010
   109   Ni    2  dz2    Ryd( 6d)     0.00002
   110   Ni    2  f(0)   Ryd( 4f)     0.00004
   111   Ni    2  f(C1)  Ryd( 4f)     0.00003
   112   Ni    2  f(S1)  Ryd( 4f)     0.00002
   113   Ni    2  f(C2)  Ryd( 4f)     0.00004
   114   Ni    2  f(S2)  Ryd( 4f)     0.00001
   115   Ni    2  f(C3)  Ryd( 4f)     0.00003
   116   Ni    2  f(S3)  Ryd( 4f)     0.00002

   117    C    3  S      Cor( 1S)     1.99908
   118    C    3  S      Val( 2S)     1.25341
   119    C    3  S      Ryd( 3S)     0.04488
   120    C    3  S      Ryd( 4S)     0.00006
   121    C    3  S      Ryd( 5S)     0.00001
   122    C    3  px     Val( 2p)     0.63918
   123    C    3  px     Ryd( 3p)     0.00434
   124    C    3  px     Ryd( 4p)     0.00022
   125    C    3  px     Ryd( 5p)     0.00008
   126    C    3  py     Val( 2p)     0.78218
   127    C    3  py     Ryd( 3p)     0.01277
   128    C    3  py     Ryd( 4p)     0.00042
   129    C    3  py     Ryd( 5p)     0.00017
   130    C    3  pz     Val( 2p)     0.63775
   131    C    3  pz     Ryd( 3p)     0.00430
   132    C    3  pz     Ryd( 4p)     0.00026
   133    C    3  pz     Ryd( 5p)     0.00012
   134    C    3  dxy    Ryd( 3d)     0.00262
   135    C    3  dxz    Ryd( 3d)     0.00090
   136    C    3  dyz    Ryd( 3d)     0.00233
   137    C    3  dx2y2  Ryd( 3d)     0.00225
   138    C    3  dz2    Ryd( 3d)     0.00177

   139    C    4  S      Cor( 1S)     1.99918
   140    C    4  S      Val( 2S)     1.26008
   141    C    4  S      Ryd( 3S)     0.04556
   142    C    4  S      Ryd( 4S)     0.00005
   143    C    4  S      Ryd( 5S)     0.00001
   144    C    4  px     Val( 2p)     0.68239
   145    C    4  px     Ryd( 3p)     0.00741
   146    C    4  px     Ryd( 4p)     0.00035
   147    C    4  px     Ryd( 5p)     0.00012
   148    C    4  py     Val( 2p)     0.60548
   149    C    4  py     Ryd( 3p)     0.00206
   150    C    4  py     Ryd( 4p)     0.00025
   151    C    4  py     Ryd( 5p)     0.00010
   152    C    4  pz     Val( 2p)     0.78924
   153    C    4  pz     Ryd( 3p)     0.01423
   154    C    4  pz     Ryd( 4p)     0.00058
   155    C    4  pz     Ryd( 5p)     0.00015
   156    C    4  dxy    Ryd( 3d)     0.00094
   157    C    4  dxz    Ryd( 3d)     0.00204
   158    C    4  dyz    Ryd( 3d)     0.00305
   159    C    4  dx2y2  Ryd( 3d)     0.00091
   160    C    4  dz2    Ryd( 3d)     0.00276

   161    C    5  S      Cor( 1S)     1.99904
   162    C    5  S      Val( 2S)     1.14230
   163    C    5  S      Ryd( 3S)     0.03179
   164    C    5  S      Ryd( 4S)     0.00095
   165    C    5  S      Ryd( 5S)     0.00001
   166    C    5  px     Val( 2p)     0.69277
   167    C    5  px     Ryd( 3p)     0.00577
   168    C    5  px     Ryd( 4p)     0.00049
   169    C    5  px     Ryd( 5p)     0.00009
   170    C    5  py     Val( 2p)     0.80239
   171    C    5  py     Ryd( 3p)     0.00576
   172    C    5  py     Ryd( 4p)     0.00044
   173    C    5  py     Ryd( 5p)     0.00011
   174    C    5  pz     Val( 2p)     0.83084
   175    C    5  pz     Ryd( 3p)     0.02343
   176    C    5  pz     Ryd( 5p)     0.00018
   177    C    5  pz     Ryd( 4p)     0.00027
   178    C    5  dxy    Ryd( 3d)     0.00026
   179    C    5  dxz    Ryd( 3d)     0.00394
   180    C    5  dyz    Ryd( 3d)     0.00324
   181    C    5  dx2y2  Ryd( 3d)     0.00038
   182    C    5  dz2    Ryd( 3d)     0.00185

   183    C    6  S      Cor( 1S)     1.99918
   184    C    6  S      Val( 2S)     1.26008
   185    C    6  S      Ryd( 3S)     0.04556
   186    C    6  S      Ryd( 4S)     0.00005
   187    C    6  S      Ryd( 5S)     0.00001
   188    C    6  px     Val( 2p)     0.68239
   189    C    6  px     Ryd( 3p)     0.00741
   190    C    6  px     Ryd( 4p)     0.00035
   191    C    6  px     Ryd( 5p)     0.00012
   192    C    6  py     Val( 2p)     0.60548
   193    C    6  py     Ryd( 3p)     0.00206
   194    C    6  py     Ryd( 4p)     0.00025
   195    C    6  py     Ryd( 5p)     0.00010
   196    C    6  pz     Val( 2p)     0.78924
   197    C    6  pz     Ryd( 3p)     0.01423
   198    C    6  pz     Ryd( 4p)     0.00058
   199    C    6  pz     Ryd( 5p)     0.00015
   200    C    6  dxy    Ryd( 3d)     0.00094
   201    C    6  dxz    Ryd( 3d)     0.00204
   202    C    6  dyz    Ryd( 3d)     0.00305
   203    C    6  dx2y2  Ryd( 3d)     0.00091
   204    C    6  dz2    Ryd( 3d)     0.00276

   205    C    7  S      Cor( 1S)     1.99908
   206    C    7  S      Val( 2S)     1.25341
   207    C    7  S      Ryd( 3S)     0.04488
   208    C    7  S      Ryd( 4S)     0.00006
   209    C    7  S      Ryd( 5S)     0.00001
   210    C    7  px     Val( 2p)     0.63918
   211    C    7  px     Ryd( 3p)     0.00434
   212    C    7  px     Ryd( 4p)     0.00022
   213    C    7  px     Ryd( 5p)     0.00008
   214    C    7  py     Val( 2p)     0.78218
   215    C    7  py     Ryd( 3p)     0.01277
   216    C    7  py     Ryd( 4p)     0.00042
   217    C    7  py     Ryd( 5p)     0.00017
   218    C    7  pz     Val( 2p)     0.63775
   219    C    7  pz     Ryd( 3p)     0.00430
   220    C    7  pz     Ryd( 4p)     0.00026
   221    C    7  pz     Ryd( 5p)     0.00012
   222    C    7  dxy    Ryd( 3d)     0.00262
   223    C    7  dxz    Ryd( 3d)     0.00090
   224    C    7  dyz    Ryd( 3d)     0.00233
   225    C    7  dx2y2  Ryd( 3d)     0.00225
   226    C    7  dz2    Ryd( 3d)     0.00177

   227    O    8  S      Cor( 1S)     1.99972
   228    O    8  S      Val( 2S)     1.70269
   229    O    8  S      Ryd( 3S)     0.00457
   230    O    8  S      Ryd( 4S)     0.00005
   231    O    8  S      Ryd( 5S)     0.00000
   232    O    8  px     Val( 2p)     1.57565
   233    O    8  px     Ryd( 3p)     0.00166
   234    O    8  px     Ryd( 4p)     0.00006
   235    O    8  px     Ryd( 5p)     0.00002
   236    O    8  py     Val( 2p)     1.63900
   237    O    8  py     Ryd( 3p)     0.00082
   238    O    8  py     Ryd( 4p)     0.00028
   239    O    8  py     Ryd( 5p)     0.00007
   240    O    8  pz     Val( 2p)     1.58636
   241    O    8  pz     Ryd( 3p)     0.00141
   242    O    8  pz     Ryd( 4p)     0.00009
   243    O    8  pz     Ryd( 5p)     0.00002
   244    O    8  dxy    Ryd( 3d)     0.00154
   245    O    8  dxz    Ryd( 3d)     0.00047
   246    O    8  dyz    Ryd( 3d)     0.00159
   247    O    8  dx2y2  Ryd( 3d)     0.00152
   248    O    8  dz2    Ryd( 3d)     0.00091

   249    O    9  S      Cor( 1S)     1.99974
   250    O    9  S      Val( 2S)     1.69073
   251    O    9  S      Ryd( 3S)     0.00425
   252    O    9  S      Ryd( 4S)     0.00005
   253    O    9  S      Ryd( 5S)     0.00000
   254    O    9  px     Val( 2p)     1.54507
   255    O    9  px     Ryd( 3p)     0.00288
   256    O    9  px     Ryd( 4p)     0.00004
   257    O    9  px     Ryd( 5p)     0.00002
   258    O    9  py     Val( 2p)     1.61687
   259    O    9  py     Ryd( 3p)     0.00673
   260    O    9  py     Ryd( 4p)     0.00006
   261    O    9  py     Ryd( 5p)     0.00001
   262    O    9  pz     Val( 2p)     1.66216
   263    O    9  pz     Ryd( 3p)     0.00083
   264    O    9  pz     Ryd( 4p)     0.00018
   265    O    9  pz     Ryd( 5p)     0.00012
   266    O    9  dxy    Ryd( 3d)     0.00001
   267    O    9  dxz    Ryd( 3d)     0.00174
   268    O    9  dyz    Ryd( 3d)     0.00164
   269    O    9  dx2y2  Ryd( 3d)     0.00000
   270    O    9  dz2    Ryd( 3d)     0.00210

   271    O   10  S      Cor( 1S)     1.99973
   272    O   10  S      Val( 2S)     1.70133
   273    O   10  S      Ryd( 3S)     0.00563
   274    O   10  S      Ryd( 4S)     0.00008
   275    O   10  S      Ryd( 5S)     0.00000
   276    O   10  px     Val( 2p)     1.58621
   277    O   10  px     Ryd( 3p)     0.00172
   278    O   10  px     Ryd( 4p)     0.00011
   279    O   10  px     Ryd( 5p)     0.00003
   280    O   10  py     Val( 2p)     1.57297
   281    O   10  py     Ryd( 3p)     0.00165
   282    O   10  py     Ryd( 4p)     0.00007
   283    O   10  py     Ryd( 5p)     0.00001
   284    O   10  pz     Val( 2p)     1.64200
   285    O   10  pz     Ryd( 3p)     0.00091
   286    O   10  pz     Ryd( 4p)     0.00030
   287    O   10  pz     Ryd( 5p)     0.00006
   288    O   10  dxy    Ryd( 3d)     0.00044
   289    O   10  dxz    Ryd( 3d)     0.00175
   290    O   10  dyz    Ryd( 3d)     0.00149
   291    O   10  dx2y2  Ryd( 3d)     0.00043
   292    O   10  dz2    Ryd( 3d)     0.00201

   293    O   11  S      Cor( 1S)     1.99972
   294    O   11  S      Val( 2S)     1.70269
   295    O   11  S      Ryd( 3S)     0.00457
   296    O   11  S      Ryd( 4S)     0.00005
   297    O   11  S      Ryd( 5S)     0.00000
   298    O   11  px     Val( 2p)     1.57565
   299    O   11  px     Ryd( 3p)     0.00166
   300    O   11  px     Ryd( 4p)     0.00006
   301    O   11  px     Ryd( 5p)     0.00002
   302    O   11  py     Val( 2p)     1.63900
   303    O   11  py     Ryd( 3p)     0.00082
   304    O   11  py     Ryd( 4p)     0.00028
   305    O   11  py     Ryd( 5p)     0.00007
   306    O   11  pz     Val( 2p)     1.58636
   307    O   11  pz     Ryd( 3p)     0.00141
   308    O   11  pz     Ryd( 4p)     0.00009
   309    O   11  pz     Ryd( 5p)     0.00002
   310    O   11  dxy    Ryd( 3d)     0.00154
   311    O   11  dxz    Ryd( 3d)     0.00047
   312    O   11  dyz    Ryd( 3d)     0.00159
   313    O   11  dx2y2  Ryd( 3d)     0.00152
   314    O   11  dz2    Ryd( 3d)     0.00091

   315    O   12  S      Cor( 1S)     1.99973
   316    O   12  S      Val( 2S)     1.70133
   317    O   12  S      Ryd( 3S)     0.00563
   318    O   12  S      Ryd( 4S)     0.00008
   319    O   12  S      Ryd( 5S)     0.00000
   320    O   12  px     Val( 2p)     1.58621
   321    O   12  px     Ryd( 3p)     0.00172
   322    O   12  px     Ryd( 4p)     0.00011
   323    O   12  px     Ryd( 5p)     0.00003
   324    O   12  py     Val( 2p)     1.57297
   325    O   12  py     Ryd( 3p)     0.00165
   326    O   12  py     Ryd( 4p)     0.00007
   327    O   12  py     Ryd( 5p)     0.00001
   328    O   12  pz     Val( 2p)     1.64200
   329    O   12  pz     Ryd( 3p)     0.00091
   330    O   12  pz     Ryd( 4p)     0.00030
   331    O   12  pz     Ryd( 5p)     0.00006
   332    O   12  dxy    Ryd( 3d)     0.00044
   333    O   12  dxz    Ryd( 3d)     0.00175
   334    O   12  dyz    Ryd( 3d)     0.00149
   335    O   12  dx2y2  Ryd( 3d)     0.00043
   336    O   12  dz2    Ryd( 3d)     0.00201

 WARNING:  4 low occupancy (<1.9990e) core orbitals found on Ni    1
           4 low occupancy (<1.9990e) core orbitals found on Ni    2


 Summary of Natural Population Analysis:                  
                                                          
                                       Natural Population 
                Natural  -----------------------------------------------
    Atom  No    Charge         Core      Valence    Rydberg      Total
 -----------------------------------------------------------------------
     Ni    1   -0.61578     17.98314    10.61519    0.01746    28.61578
     Ni    2   -0.61578     17.98314    10.61519    0.01746    28.61578
      C    3    0.61091      1.99908     3.31252    0.07749     5.38909
      C    4    0.58307      1.99918     3.33719    0.08057     5.41693
      C    5    0.45369      1.99904     3.46829    0.07898     5.54631
      C    6    0.58307      1.99918     3.33719    0.08057     5.41693
      C    7    0.61091      1.99908     3.31252    0.07749     5.38909
      O    8   -0.51849      1.99972     6.50370    0.01507     8.51849
      O    9   -0.53522      1.99974     6.51482    0.02066     8.53522
      O   10   -0.51894      1.99973     6.50251    0.01670     8.51894
      O   11   -0.51849      1.99972     6.50370    0.01507     8.51849
      O   12   -0.51894      1.99973     6.50251    0.01670     8.51894
 =======================================================================
   * Total *   -1.00000     55.96047    70.52531    0.51422   127.00000

                                 Natural Population      
 --------------------------------------------------------
   Core                      55.96047 ( 99.9294% of  56)
   Valence                   70.52531 ( 99.3314% of  71)
   Natural Minimal Basis    126.48578 ( 99.5951% of 127)
   Natural Rydberg Basis      0.51422 (  0.4049% of 127)
 --------------------------------------------------------

    Atom  No          Natural Electron Configuration
 ----------------------------------------------------------------------------
     Ni    1      [core]4S( 0.44)3d( 9.20)4p( 0.98)4d( 0.01)
     Ni    2      [core]4S( 0.44)3d( 9.20)4p( 0.98)4d( 0.01)
      C    3      [core]2S( 1.25)2p( 2.06)3S( 0.04)3p( 0.02)3d( 0.01)
      C    4      [core]2S( 1.26)2p( 2.08)3S( 0.05)3p( 0.02)3d( 0.01)
      C    5      [core]2S( 1.14)2p( 2.33)3S( 0.03)3p( 0.03)3d( 0.01)
      C    6      [core]2S( 1.26)2p( 2.08)3S( 0.05)3p( 0.02)3d( 0.01)
      C    7      [core]2S( 1.25)2p( 2.06)3S( 0.04)3p( 0.02)3d( 0.01)
      O    8      [core]2S( 1.70)2p( 4.80)3d( 0.01)
      O    9      [core]2S( 1.69)2p( 4.82)3p( 0.01)3d( 0.01)
      O   10      [core]2S( 1.70)2p( 4.80)3S( 0.01)3d( 0.01)
      O   11      [core]2S( 1.70)2p( 4.80)3d( 0.01)
      O   12      [core]2S( 1.70)2p( 4.80)3S( 0.01)3d( 0.01)


 Wiberg bond index matrix in the NAO basis:                                    

     Atom    1       2       3       4       5       6       7       8       9
     ---- ------  ------  ------  ------  ------  ------  ------  ------  ------
   1. Ni  0.0000  0.2923  1.0374  0.9894  0.6877  0.0784  0.0272  0.1167  0.0843
   2. Ni  0.2923  0.0000  0.0272  0.0784  0.6877  0.9894  1.0374  0.0075  0.0843
   3.  C  1.0374  0.0272  0.0000  0.0543  0.0628  0.0076  0.0049  2.0641  0.0176
   4.  C  0.9894  0.0784  0.0543  0.0000  0.0384  0.0202  0.0076  0.0113  0.0091
   5.  C  0.6877  0.6877  0.0628  0.0384  0.0000  0.0384  0.0628  0.0096  1.9115
   6.  C  0.0784  0.9894  0.0076  0.0202  0.0384  0.0000  0.0543  0.0028  0.0091
   7.  C  0.0272  1.0374  0.0049  0.0076  0.0628  0.0543  0.0000  0.0018  0.0176
   8.  O  0.1167  0.0075  2.0641  0.0113  0.0096  0.0028  0.0018  0.0000  0.0017
   9.  O  0.0843  0.0843  0.0176  0.0091  1.9115  0.0091  0.0176  0.0017  0.0000
  10.  O  0.0155  0.1039  0.0033  0.0059  0.0078  2.0599  0.0117  0.0009  0.0015
  11.  O  0.0075  0.1167  0.0018  0.0028  0.0096  0.0113  2.0641  0.0007  0.0017
  12.  O  0.1039  0.0155  0.0117  2.0599  0.0078  0.0059  0.0033  0.0019  0.0015

     Atom   10      11      12
     ---- ------  ------  ------
   1. Ni  0.0155  0.0075  0.1039
   2. Ni  0.1039  0.1167  0.0155
   3.  C  0.0033  0.0018  0.0117
   4.  C  0.0059  0.0028  2.0599
   5.  C  0.0078  0.0096  0.0078
   6.  C  2.0599  0.0113  0.0059
   7.  C  0.0117  2.0641  0.0033
   8.  O  0.0009  0.0007  0.0019
   9.  O  0.0015  0.0017  0.0015
  10.  O  0.0000  0.0019  0.0017
  11.  O  0.0019  0.0000  0.0009
  12.  O  0.0017  0.0009  0.0000


 Wiberg bond index, Totals by atom:                                            

     Atom    1
     ---- ------
   1. Ni  3.4404
   2. Ni  3.4404
   3.  C  3.2929
   4.  C  3.2773
   5.  C  3.5241
   6.  C  3.2773
   7.  C  3.2929
   8.  O  2.2189
   9.  O  2.1401
  10.  O  2.2140
  11.  O  2.2189
  12.  O  2.2140


 Atom-atom overlap-weighted NAO bond order:                                    

     Atom    1       2       3       4       5       6       7       8       9
     ---- ------  ------  ------  ------  ------  ------  ------  ------  ------
   1. Ni  0.0000  0.4225  1.0043  0.9932  0.7968  0.1175  0.0108 -0.0195 -0.0303
   2. Ni  0.4225  0.0000  0.0108  0.1175  0.7968  0.9932  1.0043 -0.0008 -0.0303
   3.  C  1.0043  0.0108  0.0000  0.0633  0.0950  0.0023  0.0010  1.4923 -0.0126
   4.  C  0.9932  0.1175  0.0633  0.0000  0.0181  0.0258  0.0023 -0.0024  0.0003
   5.  C  0.7968  0.7968  0.0950  0.0181  0.0000  0.0181  0.0950 -0.0023  1.4040
   6.  C  0.1175  0.9932  0.0023  0.0258  0.0181  0.0000  0.0633 -0.0002  0.0003
   7.  C  0.0108  1.0043  0.0010  0.0023  0.0950  0.0633  0.0000  0.0000 -0.0126
   8.  O -0.0195 -0.0008  1.4923 -0.0024 -0.0023 -0.0002  0.0000  0.0000  0.0016
   9.  O -0.0303 -0.0303 -0.0126  0.0003  1.4040  0.0003 -0.0126  0.0016  0.0000
  10.  O -0.0043 -0.0206  0.0003 -0.0029 -0.0023  1.4805 -0.0019  0.0000  0.0001
  11.  O -0.0008 -0.0195  0.0000 -0.0002 -0.0023 -0.0024  1.4923  0.0000  0.0016
  12.  O -0.0206 -0.0043 -0.0019  1.4805 -0.0023 -0.0029  0.0003  0.0000  0.0001

     Atom   10      11      12
     ---- ------  ------  ------
   1. Ni -0.0043 -0.0008 -0.0206
   2. Ni -0.0206 -0.0195 -0.0043
   3.  C  0.0003  0.0000 -0.0019
   4.  C -0.0029 -0.0002  1.4805
   5.  C -0.0023 -0.0023 -0.0023
   6.  C  1.4805 -0.0024 -0.0029
   7.  C -0.0019  1.4923  0.0003
   8.  O  0.0000  0.0000  0.0000
   9.  O  0.0001  0.0016  0.0001
  10.  O  0.0000  0.0000  0.0012
  11.  O  0.0000  0.0000  0.0000
  12.  O  0.0012  0.0000  0.0000


 Atom-atom overlap-weighted NAO bond order, Totals by atom:                    

     Atom    1
     ---- ------
   1. Ni  3.2695
   2. Ni  3.2695
   3.  C  2.6548
   4.  C  2.6955
   5.  C  3.2146
   6.  C  2.6955
   7.  C  2.6548
   8.  O  1.4688
   9.  O  1.3221
  10.  O  1.4498
  11.  O  1.4688
  12.  O  1.4498


 MO bond order:                                                                

     Atom    1       2       3       4       5       6       7       8       9
     ---- ------  ------  ------  ------  ------  ------  ------  ------  ------
   1. Ni  0.0000  0.4730  0.1228 -0.5007  0.6964 -0.1184  0.1547 -0.1411 -0.3080
   2. Ni  0.4730  0.0000  0.0750  0.1830 -0.3219  0.2377 -0.1688  0.0485  0.4138
   3.  C  0.1228  0.0750  0.0000 -0.2627  0.0174  0.0553  0.0620  0.5519 -0.0593
   4.  C -0.5007  0.1830 -0.2627  0.0000 -0.3060 -0.0827  0.1941  0.1709  0.1094
   5.  C  0.6964 -0.3219  0.0174 -0.3060  0.0000  0.1950 -0.3424  0.0177  1.9216
   6.  C -0.1184  0.2377  0.0553 -0.0827  0.1950  0.0000 -0.1563 -0.0706 -0.1505
   7.  C  0.1547 -0.1688  0.0620  0.1941 -0.3424 -0.1563  0.0000  0.0140  0.2430
   8.  O -0.1411  0.0485  0.5519  0.1709  0.0177 -0.0706  0.0140  0.0000 -0.0217
   9.  O -0.3080  0.4138 -0.0593  0.1094  1.9216 -0.1505  0.2430 -0.0217  0.0000
  10.  O -0.0537  0.3260 -0.0195 -0.0237 -0.1420  1.9367  0.0169  0.0365  0.0882
  11.  O -0.0498  0.1199 -0.0191 -0.0702  0.0070  0.0213  1.5507  0.0033 -0.0494
  12.  O  0.4368 -0.0651 -0.0114  0.5110  0.0181  0.0755 -0.1060 -0.0737  0.0529

     Atom   10      11      12
     ---- ------  ------  ------
   1. Ni -0.0537 -0.0498  0.4368
   2. Ni  0.3260  0.1199 -0.0651
   3.  C -0.0195 -0.0191 -0.0114
   4.  C -0.0237 -0.0702  0.5110
   5.  C -0.1420  0.0070  0.0181
   6.  C  1.9367  0.0213  0.0755
   7.  C  0.0169  1.5507 -0.1060
   8.  O  0.0365  0.0033 -0.0737
   9.  O  0.0882 -0.0494  0.0529
  10.  O  0.0000  0.0274 -0.0017
  11.  O  0.0274  0.0000  0.0332
  12.  O -0.0017  0.0332  0.0000


 MO atomic valencies:                                                          

     Atom    1
     ---- ------
   1. Ni  0.7121
   2. Ni  1.3211
   3.  C  0.5124
   4.  C -0.0775
   5.  C  1.7608
   6.  C  1.9430
   7.  C  1.4619
   8.  O  0.5356
   9.  O  2.2400
  10.  O  2.1912
  11.  O  1.5742
  12.  O  0.8696


 ***************************************************
 *******         Alpha spin orbitals         *******
 ***************************************************


 NATURAL POPULATIONS:  Natural atomic orbital occupancies 
                                                          
   NAO  Atom  No  lang   Type(AO)    Occupancy      Energy
 ----------------------------------------------------------
     1   Ni    1  S      Cor( 1S)     1.00000    -299.31008
     2   Ni    1  S      Cor( 2S)     1.00000     -34.32225
     3   Ni    1  S      Cor( 3S)     0.99571      -5.35983
     4   Ni    1  S      Val( 4S)     0.22290       0.48640
     5   Ni    1  S      Ryd( 6S)     0.00074       1.35640
     6   Ni    1  S      Ryd( 7S)     0.00008       1.74692
     7   Ni    1  S      Ryd( 5S)     0.00005       1.03954
     8   Ni    1  S      Ryd( 8S)     0.00000     115.89647
     9   Ni    1  S      Ryd( 9S)     0.00000     334.63240
    10   Ni    1  S      Ryd(10S)     0.00000     582.63873
    11   Ni    1  px     Cor( 2p)     1.00000     -30.96721
    12   Ni    1  px     Cor( 3p)     0.99914      -2.50066
    13   Ni    1  px     Val( 4p)     0.18626       0.26416
    14   Ni    1  px     Ryd( 5p)     0.00065       0.45457
    15   Ni    1  px     Ryd( 6p)     0.00007       2.21317
    16   Ni    1  px     Ryd( 7p)     0.00001      12.53365
    17   Ni    1  px     Ryd( 8p)     0.00000      32.43872
    18   Ni    1  py     Cor( 2p)     1.00000     -30.97472
    19   Ni    1  py     Cor( 3p)     0.99851      -2.50699
    20   Ni    1  py     Val( 4p)     0.18023       0.47096
    21   Ni    1  py     Ryd( 5p)     0.00040       0.76098
    22   Ni    1  py     Ryd( 6p)     0.00022       2.11554
    23   Ni    1  py     Ryd( 7p)     0.00001      12.20411
    24   Ni    1  py     Ryd( 8p)     0.00000      32.41485
    25   Ni    1  pz     Cor( 2p)     1.00000     -30.97609
    26   Ni    1  pz     Cor( 3p)     0.99885      -2.50930
    27   Ni    1  pz     Val( 4p)     0.20157       0.40900
    28   Ni    1  pz     Ryd( 5p)     0.00032       0.71505
    29   Ni    1  pz     Ryd( 6p)     0.00010       2.24260
    30   Ni    1  pz     Ryd( 7p)     0.00001      12.34356
    31   Ni    1  pz     Ryd( 8p)     0.00000      32.41464
    32   Ni    1  dxy    Val( 3d)     0.92192      -0.11391
    33   Ni    1  dxy    Ryd( 4d)     0.00122       0.96073
    34   Ni    1  dxy    Ryd( 5d)     0.00006       1.97152
    35   Ni    1  dxy    Ryd( 6d)     0.00000       6.98338
    36   Ni    1  dxz    Val( 3d)     0.93058      -0.11825
    37   Ni    1  dxz    Ryd( 4d)     0.00073       1.24852
    38   Ni    1  dxz    Ryd( 5d)     0.00003       2.11511
    39   Ni    1  dxz    Ryd( 6d)     0.00001       7.00553
    40   Ni    1  dyz    Val( 3d)     0.87756      -0.12508
    41   Ni    1  dyz    Ryd( 4d)     0.00135       1.28370
    42   Ni    1  dyz    Ryd( 5d)     0.00007       2.25206
    43   Ni    1  dyz    Ryd( 6d)     0.00001       7.10945
    44   Ni    1  dx2y2  Val( 3d)     0.94474      -0.12326
    45   Ni    1  dx2y2  Ryd( 4d)     0.00106       1.89565
    46   Ni    1  dx2y2  Ryd( 5d)     0.00006       2.13021
    47   Ni    1  dx2y2  Ryd( 6d)     0.00001       7.03555
    48   Ni    1  dz2    Val( 3d)     0.89130      -0.12191
    49   Ni    1  dz2    Ryd( 4d)     0.00126       1.31210
    50   Ni    1  dz2    Ryd( 5d)     0.00006       2.21520
    51   Ni    1  dz2    Ryd( 6d)     0.00001       7.07346
    52   Ni    1  f(0)   Ryd( 4f)     0.00002       3.83431
    53   Ni    1  f(C1)  Ryd( 4f)     0.00001       3.87030
    54   Ni    1  f(S1)  Ryd( 4f)     0.00001       3.82954
    55   Ni    1  f(C2)  Ryd( 4f)     0.00002       3.84418
    56   Ni    1  f(S2)  Ryd( 4f)     0.00001       3.78918
    57   Ni    1  f(C3)  Ryd( 4f)     0.00002       3.80668
    58   Ni    1  f(S3)  Ryd( 4f)     0.00001       3.78937

    59   Ni    2  S      Cor( 1S)     1.00000    -299.31008
    60   Ni    2  S      Cor( 2S)     1.00000     -34.32225
    61   Ni    2  S      Cor( 3S)     0.99571      -5.35983
    62   Ni    2  S      Val( 4S)     0.22290       0.48640
    63   Ni    2  S      Ryd( 6S)     0.00074       1.35640
    64   Ni    2  S      Ryd( 7S)     0.00008       1.74692
    65   Ni    2  S      Ryd( 5S)     0.00005       1.03954
    66   Ni    2  S      Ryd( 8S)     0.00000     115.89647
    67   Ni    2  S      Ryd( 9S)     0.00000     334.63240
    68   Ni    2  S      Ryd(10S)     0.00000     582.63873
    69   Ni    2  px     Cor( 2p)     1.00000     -30.96721
    70   Ni    2  px     Cor( 3p)     0.99914      -2.50066
    71   Ni    2  px     Val( 4p)     0.18626       0.26416
    72   Ni    2  px     Ryd( 5p)     0.00065       0.45457
    73   Ni    2  px     Ryd( 6p)     0.00007       2.21317
    74   Ni    2  px     Ryd( 7p)     0.00001      12.53365
    75   Ni    2  px     Ryd( 8p)     0.00000      32.43872
    76   Ni    2  py     Cor( 2p)     1.00000     -30.97472
    77   Ni    2  py     Cor( 3p)     0.99851      -2.50699
    78   Ni    2  py     Val( 4p)     0.18023       0.47096
    79   Ni    2  py     Ryd( 5p)     0.00040       0.76098
    80   Ni    2  py     Ryd( 6p)     0.00022       2.11554
    81   Ni    2  py     Ryd( 7p)     0.00001      12.20411
    82   Ni    2  py     Ryd( 8p)     0.00000      32.41485
    83   Ni    2  pz     Cor( 2p)     1.00000     -30.97609
    84   Ni    2  pz     Cor( 3p)     0.99885      -2.50930
    85   Ni    2  pz     Val( 4p)     0.20157       0.40900
    86   Ni    2  pz     Ryd( 5p)     0.00032       0.71505
    87   Ni    2  pz     Ryd( 6p)     0.00010       2.24260
    88   Ni    2  pz     Ryd( 7p)     0.00001      12.34356
    89   Ni    2  pz     Ryd( 8p)     0.00000      32.41464
    90   Ni    2  dxy    Val( 3d)     0.92192      -0.11391
    91   Ni    2  dxy    Ryd( 4d)     0.00122       0.96073
    92   Ni    2  dxy    Ryd( 5d)     0.00006       1.97152
    93   Ni    2  dxy    Ryd( 6d)     0.00000       6.98338
    94   Ni    2  dxz    Val( 3d)     0.93058      -0.11825
    95   Ni    2  dxz    Ryd( 4d)     0.00073       1.24852
    96   Ni    2  dxz    Ryd( 5d)     0.00003       2.11511
    97   Ni    2  dxz    Ryd( 6d)     0.00001       7.00553
    98   Ni    2  dyz    Val( 3d)     0.87756      -0.12508
    99   Ni    2  dyz    Ryd( 4d)     0.00135       1.28370
   100   Ni    2  dyz    Ryd( 5d)     0.00007       2.25206
   101   Ni    2  dyz    Ryd( 6d)     0.00001       7.10945
   102   Ni    2  dx2y2  Val( 3d)     0.94474      -0.12326
   103   Ni    2  dx2y2  Ryd( 4d)     0.00106       1.89565
   104   Ni    2  dx2y2  Ryd( 5d)     0.00006       2.13021
   105   Ni    2  dx2y2  Ryd( 6d)     0.00001       7.03555
   106   Ni    2  dz2    Val( 3d)     0.89130      -0.12191
   107   Ni    2  dz2    Ryd( 4d)     0.00126       1.31210
   108   Ni    2  dz2    Ryd( 5d)     0.00006       2.21520
   109   Ni    2  dz2    Ryd( 6d)     0.00001       7.07346
   110   Ni    2  f(0)   Ryd( 4f)     0.00002       3.83431
   111   Ni    2  f(C1)  Ryd( 4f)     0.00001       3.87030
   112   Ni    2  f(S1)  Ryd( 4f)     0.00001       3.82954
   113   Ni    2  f(C2)  Ryd( 4f)     0.00002       3.84418
   114   Ni    2  f(S2)  Ryd( 4f)     0.00001       3.78918
   115   Ni    2  f(C3)  Ryd( 4f)     0.00002       3.80668
   116   Ni    2  f(S3)  Ryd( 4f)     0.00001       3.78937

   117    C    3  S      Cor( 1S)     0.99954     -10.00605
   118    C    3  S      Val( 2S)     0.62555      -0.20037
   119    C    3  S      Ryd( 4S)     0.02220       1.60146
   120    C    3  S      Ryd( 3S)     0.00003       0.71837
   121    C    3  S      Ryd( 5S)     0.00001      23.48538
   122    C    3  px     Val( 2p)     0.34454       0.02859
   123    C    3  px     Ryd( 4p)     0.00270       1.09554
   124    C    3  px     Ryd( 3p)     0.00011       0.55014
   125    C    3  px     Ryd( 5p)     0.00004       2.41771
   126    C    3  py     Val( 2p)     0.39106       0.09367
   127    C    3  py     Ryd( 4p)     0.00636       1.83523
   128    C    3  py     Ryd( 3p)     0.00021       0.67475
   129    C    3  py     Ryd( 5p)     0.00008       2.91393
   130    C    3  pz     Val( 2p)     0.32844       0.03766
   131    C    3  pz     Ryd( 4p)     0.00222       1.21440
   132    C    3  pz     Ryd( 3p)     0.00013       0.57329
   133    C    3  pz     Ryd( 5p)     0.00006       2.42132
   134    C    3  dxy    Ryd( 3d)     0.00132       2.03585
   135    C    3  dxz    Ryd( 3d)     0.00045       1.69634
   136    C    3  dyz    Ryd( 3d)     0.00117       2.16417
   137    C    3  dx2y2  Ryd( 3d)     0.00113       2.15810
   138    C    3  dz2    Ryd( 3d)     0.00089       1.75554

   139    C    4  S      Cor( 1S)     0.99959     -10.00535
   140    C    4  S      Val( 2S)     0.63004      -0.20019
   141    C    4  S      Ryd( 3S)     0.02261       1.50523
   142    C    4  S      Ryd( 4S)     0.00003       1.99934
   143    C    4  S      Ryd( 5S)     0.00001      22.17667
   144    C    4  px     Val( 2p)     0.37943       0.03830
   145    C    4  px     Ryd( 4p)     0.00462       1.16168
   146    C    4  px     Ryd( 3p)     0.00018       0.56002
   147    C    4  px     Ryd( 5p)     0.00007       2.49269
   148    C    4  py     Val( 2p)     0.30558       0.03211
   149    C    4  py     Ryd( 4p)     0.00110       1.06016
   150    C    4  py     Ryd( 3p)     0.00013       0.61896
   151    C    4  py     Ryd( 5p)     0.00005       2.36214
   152    C    4  pz     Val( 2p)     0.39839       0.09521
   153    C    4  pz     Ryd( 4p)     0.00718       1.92662
   154    C    4  pz     Ryd( 3p)     0.00029       0.61602
   155    C    4  pz     Ryd( 5p)     0.00008       2.82112
   156    C    4  dxy    Ryd( 3d)     0.00046       1.61085
   157    C    4  dxz    Ryd( 3d)     0.00103       2.35026
   158    C    4  dyz    Ryd( 3d)     0.00152       1.88704
   159    C    4  dx2y2  Ryd( 3d)     0.00047       1.65223
   160    C    4  dz2    Ryd( 3d)     0.00138       2.30312

   161    C    5  S      Cor( 1S)     0.99952      -9.98493
   162    C    5  S      Val( 2S)     0.57119      -0.16002
   163    C    5  S      Ryd( 4S)     0.01569       1.72177
   164    C    5  S      Ryd( 3S)     0.00047       0.71203
   165    C    5  S      Ryd( 5S)     0.00001      22.99091
   166    C    5  px     Val( 2p)     0.38546       0.02459
   167    C    5  px     Ryd( 4p)     0.00331       0.86474
   168    C    5  px     Ryd( 3p)     0.00032       0.43017
   169    C    5  px     Ryd( 5p)     0.00005       2.67186
[...]
                                                    94(r),317(r),164(r)
    60. LP*(   6)Ni   2                  0.16332     0.61568  318(r),320(g),319(r),302(r)
                                                    268(r),109(g),191(r),69(r)
                                                    108(g),111(g),113(g),68(r)
                                                    249(r),76(r),71(r),185(r)
                                                    121(g),75(r),266(r),251(r)
                                                    199(v),131(g),116(g),119(g)
                                                    216(v),137(g),134(g),183(r)
                                                    92(r),118(g),300(r),70(r)
                                                    233(r),256(r),335(v),97(r)
                                                    165(r),188(r),107(g),80(r)
                                                    219(v),135(g),112(g),73(r)
                                                    74(r),330(r),284(r),129(g)
                                                    301(r),148(r),117(g),204(v)
                                                    231(v),120(g),123(g),89(r)
                                                    331(v),202(v),332(v),67(r)
                                                    94(r),285(r),290(r),168(r)
                                                    154(r),227(v),163(r),132(g)
                                                    267(r),147(r),214(v),181(r)
                                                    283(r),159(r),193(r),54(r)
                                                    153(r),225(v),258(r),201(v)
                                                    276(r),334(v),321(g),236(r)
                                                    226(v),329(r),250(r),287(r)
                                                    228(v),190(r),209(v),180(r)
                                                    167(r),138(g),182(r),207(v)
                                                    234(r),79(r),142(g),91(r)
                                                    328(r),275(r),310(r),263(r)
                                                    115(g),158(r),95(r),157(r)
                                                    146(g),239(r),187(r),175(r)
                                                    164(r),309(r),186(r),197(r)
                                                    170(r),161(r),86(r),72(r)
                                                    173(r),192(r),325(r),326(r)
                                                    323(r),322(r),232(r),160(r)
                                                    81(r),176(r),152(r),150(r)
                                                    83(r),184(r),106(r),96(r)
                                                    317(r),151(r),316(r),252(r)
                                                    174(r),77(r),257(r),105(r)
                                                    247(r),104(r),313(r),82(r)
                                                    166(r),100(r),162(r)
    61. LP*(   7)Ni   2                  0.01991     0.27305   
    64. LP (   1) O  10                  0.98986    -0.60511  198(v),199(v),320(v),266(g)
                                                    331(g)
    65. LP (   1) O  11                  0.99020    -0.61494  215(v),216(v),321(v),283(g)
   107. RY*(   1)Ni   2                  0.00105     1.06989   
   108. RY*(   2)Ni   2                  0.00074     1.36495   
   109. RY*(   3)Ni   2                  0.00065     2.13263   
   110. RY*(   4)Ni   2                  0.00028     1.02500   
   111. RY*(   5)Ni   2                  0.00024     1.15849   
   112. RY*(   6)Ni   2                  0.00020     1.17721   
   113. RY*(   7)Ni   2                  0.00015     1.44098   
   114. RY*(   8)Ni   2                  0.00008     1.46348   
   115. RY*(   9)Ni   2                  0.00009     1.30143   
   116. RY*(  10)Ni   2                  0.00006     1.30091   
   117. RY*(  11)Ni   2                  0.00003     2.56813   
   118. RY*(  12)Ni   2                  0.00003     1.90486   
   119. RY*(  13)Ni   2                  0.00004     0.94287   
   120. RY*(  14)Ni   2                  0.00000    32.39589   
   121. RY*(  15)Ni   2                  0.00000   115.74763   
   122. RY*(  16)Ni   2                  0.00000     2.20165   
   123. RY*(  17)Ni   2                  0.00000    12.26343   
   124. RY*(  18)Ni   2                  0.00000    32.40580   
   125. RY*(  19)Ni   2                  0.00000    12.52317   
   126. RY*(  20)Ni   2                  0.00000     2.04072   
   127. RY*(  21)Ni   2                  0.00000     6.92356   
   128. RY*(  22)Ni   2                  0.00000    32.43442   
   129. RY*(  23)Ni   2                  0.00000     2.12907   
   130. RY*(  24)Ni   2                  0.00000     6.92096   
   131. RY*(  25)Ni   2                  0.00000   334.62792   
   132. RY*(  26)Ni   2                  0.00000   582.62220   
   133. RY*(  27)Ni   2                  0.00000     6.36611   
   134. RY*(  28)Ni   2                  0.00001     2.22246   
   135. RY*(  29)Ni   2                  0.00001     2.71377   
   136. RY*(  30)Ni   2                  0.00000     6.93261   
   137. RY*(  31)Ni   2                  0.00000    12.20268   
   138. RY*(  32)Ni   2                  0.00000     2.24634   
   139. RY*(  33)Ni   2                  0.00000     6.71315   
   140. RY*(  34)Ni   2                  0.00000     3.75330   
   141. RY*(  35)Ni   2                  0.00000     3.79823   
   142. RY*(  36)Ni   2                  0.00000     3.74637   
   143. RY*(  37)Ni   2                  0.00000     3.52839   
   144. RY*(  38)Ni   2                  0.00000     3.71132   
   145. RY*(  39)Ni   2                  0.00000     3.75944   
   146. RY*(  40)Ni   2                  0.00000     3.68445   
   198. RY*(   1) C   6                  0.01100     0.92939   
   199. RY*(   2) C   6                  0.00349     2.81843   
   200. RY*(   3) C   6                  0.00186     1.22936   
   201. RY*(   4) C   6                  0.00164     1.82805   
   202. RY*(   5) C   6                  0.00080     1.08821   
   203. RY*(   6) C   6                  0.00020     1.40834   
   204. RY*(   7) C   6                  0.00007     0.68088   
   205. RY*(   8) C   6                  0.00004     1.05156   
   206. RY*(   9) C   6                  0.00003     1.71976   
   207. RY*(  10) C   6                  0.00001     0.94485   
   208. RY*(  11) C   6                  0.00002     1.66751   
   209. RY*(  12) C   6                  0.00001     2.60084   
   210. RY*(  13) C   6                  0.00001     3.23982   
   211. RY*(  14) C   6                  0.00000    21.32206   
   212. RY*(  15) C   6                  0.00001     1.74550   
   213. RY*(  16) C   6                  0.00001     2.47268   
   214. RY*(  17) C   6                  0.00001     2.27873   
   215. RY*(   1) C   7                  0.01058     0.97784   
   216. RY*(   2) C   7                  0.00322     2.87533   
   217. RY*(   3) C   7                  0.00189     1.38304   
   218. RY*(   4) C   7                  0.00172     1.75817   
   219. RY*(   5) C   7                  0.00055     1.17709   
   220. RY*(   6) C   7                  0.00021     1.33869   
   221. RY*(   7) C   7                  0.00005     1.12510   
   222. RY*(   8) C   7                  0.00003     1.38129   
   223. RY*(   9) C   7                  0.00002     1.59684   
   224. RY*(  10) C   7                  0.00002     1.89336   
   225. RY*(  11) C   7                  0.00002     0.93216   
   226. RY*(  12) C   7                  0.00001     2.28527   
   227. RY*(  13) C   7                  0.00001     2.23946   
   228. RY*(  14) C   7                  0.00001     2.80361   
   229. RY*(  15) C   7                  0.00001     2.88173   
   230. RY*(  16) C   7                  0.00000    21.80473   
   231. RY*(  17) C   7                  0.00001     0.77992   
   266. RY*(   1) O  10                  0.00212     0.97061   
   267. RY*(   2) O  10                  0.00083     0.65367   
   268. RY*(   3) O  10                  0.00038     0.61575   
   269. RY*(   4) O  10                  0.00007     1.24391   
   270. RY*(   5) O  10                  0.00003     1.67492   
   271. RY*(   6) O  10                  0.00001     1.24972   
   272. RY*(   7) O  10                  0.00000    49.55817   
   273. RY*(   8) O  10                  0.00000     4.97534   
   274. RY*(   9) O  10                  0.00000     5.03351   
   275. RY*(  10) O  10                  0.00000     1.37541   
   276. RY*(  11) O  10                  0.00001     1.37537   
   277. RY*(  12) O  10                  0.00000     4.94541   
   278. RY*(  13) O  10                  0.00000     2.97557   
   279. RY*(  14) O  10                  0.00000     3.37341   
   280. RY*(  15) O  10                  0.00000     3.12070   
   281. RY*(  16) O  10                  0.00000     2.98098   
   282. RY*(  17) O  10                  0.00000     3.36172   
   283. RY*(   1) O  11                  0.00176     0.96635   
   284. RY*(   2) O  11                  0.00069     0.67736   
   285. RY*(   3) O  11                  0.00042     0.64173   
   286. RY*(   4) O  11                  0.00007     1.25104   
   287. RY*(   5) O  11                  0.00002     1.44838   
   288. RY*(   6) O  11                  0.00000     4.88798   
   289. RY*(   7) O  11                  0.00000    49.54041   
   290. RY*(   8) O  11                  0.00001     1.44798   
   291. RY*(   9) O  11                  0.00000     4.90482   
   292. RY*(  10) O  11                  0.00000     1.33331   
   293. RY*(  11) O  11                  0.00001     1.39927   
   294. RY*(  12) O  11                  0.00000     4.94892   
   295. RY*(  13) O  11                  0.00000     3.24513   
   296. RY*(  14) O  11                  0.00000     2.98886   
   297. RY*(  15) O  11                  0.00000     3.29349   
   298. RY*(  16) O  11                  0.00000     3.24367   
   299. RY*(  17) O  11                  0.00000     3.05749   
   320. BD*(   1)Ni   2 - C   6          0.00601     0.62527   
   321. BD*(   1)Ni   2 - C   7          0.00549     0.55181   
   331. BD*(   1) C   6 - O  10          0.00673     0.81626   
   332. BD*(   2) C   6 - O  10          0.08194     0.18051   
   333. BD*(   3) C   6 - O  10          0.03683     0.16693   
   334. BD*(   1) C   7 - O  11          0.01731     0.72753   
   335. BD*(   2) C   7 - O  11          0.06918     0.26256   
   336. BD*(   3) C   7 - O  11          0.04752     0.16305   
       -------------------------------
              Total Lewis   27.55111  ( 98.2108%)
        Valence non-Lewis    0.45424  (  1.6192%)
        Rydberg non-Lewis    0.04769  (  0.1700%)
       -------------------------------
            Total unit  2   28.05304  (100.0000%)
           Charge unit  2   -0.05304
 Sorting of NBOs:                   30   21   31   22   28   37   26   35   24   33
 Sorting of NBOs:                   47   44   46   48   45   43   39   40   42   41
 Sorting of NBOs:                   23   32   38   29   27   36   34   25   15    9
 Sorting of NBOs:                   12    6   18   62   65   66   64   63   19    7
 Sorting of NBOs:                    5    1    4    2   10   16   20    8   17   11
 Sorting of NBOs:                    3   13   14   58   52   51   57   56   50   59
 Sorting of NBOs:                   55   49   53  324  336  330  329  327  333  332
 Sorting of NBOs:                  326  323  335   54   61  317  321   60  268  302
 Sorting of NBOs:                  320  318  234  285  251  301  267  191  233  284
 Sorting of NBOs:                  319  204  170  334  322  163  231  249  328  192
 Sorting of NBOs:                  325  331  181  198  164  157  225  119  207  173
 Sorting of NBOs:                  232  283  300  266  147  215   70  110  252  205
 Sorting of NBOs:                  171  107   67   75  168  202  221  153  187  256
 Sorting of NBOs:                  111   71  259   72  151  219  112  250  183  200
 Sorting of NBOs:                  166  269  303  271  305  258  286  235   76  116
 Sorting of NBOs:                  115  241  292  220  152   68  108  276  310  309
 Sorting of NBOs:                  275  222  154  217  149  242  293  203  169  113
 Sorting of NBOs:                  239  290  236  287   73  114  184  223  155  189
 Sorting of NBOs:                  208  174  304  270   74  172  206  212  178  218
 Sorting of NBOs:                  150  190   77  188  253  186  201  167   78  224
 Sorting of NBOs:                  156  118   79   86  185  126  129   69  109  194
 Sorting of NBOs:                  122   82   89  134  159  227  138  180  214  158
 Sorting of NBOs:                  226   98  182  179  213  193  117  196  175  209
 Sorting of NBOs:                  135  195  160  228  165  199  148  216  161  229
 Sorting of NBOs:                  261  264  278  312  315  281  296  245  299  248
 Sorting of NBOs:                  314  280  262  210  176  298  247  295  244  297
 Sorting of NBOs:                  246  263  282  316  313  279   81   80  254  143
 Sorting of NBOs:                  103  106  105  104  100  146  101  144  142  102
 Sorting of NBOs:                  140  145  141  288  237  291  240  277  311  294
 Sorting of NBOs:                  243  273  307  274  308  265  260  257   93  133
 Sorting of NBOs:                  139   96   87   99  130  127   90  136   94   83
 Sorting of NBOs:                   85  137  123  125  177  211  230  162  197   84
 Sorting of NBOs:                   95  120   88  124  128  289  238  306  272  255
 Sorting of NBOs:                   92  121  131   97  132   91
 Reordering of NBOs for storage:    30   21   31   22   28   37   26   35   24   33
 Reordering of NBOs for storage:    47   44   46   48   45   43   39   40   42   41
 Reordering of NBOs for storage:    23   32   38   29   27   36   34   25   15    9
 Reordering of NBOs for storage:    12    6   18   62   65   66   64   63   19    7
 Reordering of NBOs for storage:     5    1    4    2   10   16   20    8   17   11
 Reordering of NBOs for storage:     3   13   14   58   52   51   57   56   50   59
 Reordering of NBOs for storage:    55   49   53  324  336  330  329  327  333  332
 Reordering of NBOs for storage:   326  323  335   54   61  317  321   60  320  318
 Reordering of NBOs for storage:   319  334  322  328  325  331  268  302  234  285
 Reordering of NBOs for storage:   251  301  267  191  233  284  204  170  163  231
 Reordering of NBOs for storage:   249  192  181  198  164  157  225  119  207  173
 Reordering of NBOs for storage:   232  283  300  266  147  215   70  110  252  205
 Reordering of NBOs for storage:   171  107   67   75  168  202  221  153  187  256
 Reordering of NBOs for storage:   111   71  259   72  151  219  112  250  183  200
 Reordering of NBOs for storage:   166  269  303  271  305  258  286  235   76  116
 Reordering of NBOs for storage:   115  241  292  220  152   68  108  276  310  309
 Reordering of NBOs for storage:   275  222  154  217  149  242  293  203  169  113
 Reordering of NBOs for storage:   239  290  236  287   73  114  184  223  155  189
 Reordering of NBOs for storage:   208  174  304  270   74  172  206  212  178  218
 Reordering of NBOs for storage:   150  190   77  188  253  186  201  167   78  224
 Reordering of NBOs for storage:   156  118   79   86  185  126  129   69  109  194
 Reordering of NBOs for storage:   122   82   89  134  159  227  138  180  214  158
 Reordering of NBOs for storage:   226   98  182  179  213  193  117  196  175  209
 Reordering of NBOs for storage:   135  195  160  228  165  199  148  216  161  229
 Reordering of NBOs for storage:   261  264  278  312  315  281  296  245  299  248
 Reordering of NBOs for storage:   314  280  262  210  176  298  247  295  244  297
 Reordering of NBOs for storage:   246  263  282  316  313  279   81   80  254  143
 Reordering of NBOs for storage:   103  106  105  104  100  146  101  144  142  102
 Reordering of NBOs for storage:   140  145  141  288  237  291  240  277  311  294
 Reordering of NBOs for storage:   243  273  307  274  308  265  260  257   93  133
 Reordering of NBOs for storage:   139   96   87   99  130  127   90  136   94   83
 Reordering of NBOs for storage:    85  137  123  125  177  211  230  162  197   84
 Reordering of NBOs for storage:    95  120   88  124  128  289  238  306  272  255
 Reordering of NBOs for storage:    92  121  131   97  132   91
 Labels of output orbitals:  CR  CR  CR  CR  CR  CR  CR  CR  CR  CR  CR  CR  CR  CR  CR  CR  CR  CR  CR  CR  
 Labels of output orbitals:  CR  CR  CR  CR  CR  CR  CR  CR  BD  BD  BD  BD  BD  LP  LP  LP  LP  LP  BD  BD  
 Labels of output orbitals:  BD  BD  BD  BD  BD  BD  BD  BD  BD  BD  BD  BD  BD  LP  LP  LP  LP  LP  LP  LP  
 Labels of output orbitals:  LP  LP  LP  BD* BD* BD* BD* BD* BD* BD* BD* BD* BD* LP* LP* BD* BD* LP* BD* BD* 
 Labels of output orbitals:  BD* BD* BD* BD* BD* BD* RY* RY* RY* RY* RY* RY* RY* RY* RY* RY* RY* RY* RY* RY* 
 Labels of output orbitals:  RY* RY* RY* RY* RY* RY* RY* RY* RY* RY* RY* RY* RY* RY* RY* RY* RY* RY* RY* RY* 
 Labels of output orbitals:  RY* RY* RY* RY* RY* RY* RY* RY* RY* RY* RY* RY* RY* RY* RY* RY* RY* RY* RY* RY* 
 Labels of output orbitals:  RY* RY* RY* RY* RY* RY* RY* RY* RY* RY* RY* RY* RY* RY* RY* RY* RY* RY* RY* RY* 
 Labels of output orbitals:  RY* RY* RY* RY* RY* RY* RY* RY* RY* RY* RY* RY* RY* RY* RY* RY* RY* RY* RY* RY* 
 Labels of output orbitals:  RY* RY* RY* RY* RY* RY* RY* RY* RY* RY* RY* RY* RY* RY* RY* RY* RY* RY* RY* RY* 
 Labels of output orbitals:  RY* RY* RY* RY* RY* RY* RY* RY* RY* RY* RY* RY* RY* RY* RY* RY* RY* RY* RY* RY* 
 Labels of output orbitals:  RY* RY* RY* RY* RY* RY* RY* RY* RY* RY* RY* RY* RY* RY* RY* RY* RY* RY* RY* RY* 
 Labels of output orbitals:  RY* RY* RY* RY* RY* RY* RY* RY* RY* RY* RY* RY* RY* RY* RY* RY* RY* RY* RY* RY* 
 Labels of output orbitals:  RY* RY* RY* RY* RY* RY* RY* RY* RY* RY* RY* RY* RY* RY* RY* RY* RY* RY* RY* RY* 
 Labels of output orbitals:  RY* RY* RY* RY* RY* RY* RY* RY* RY* RY* RY* RY* RY* RY* RY* RY* RY* RY* RY* RY* 
 Labels of output orbitals:  RY* RY* RY* RY* RY* RY* RY* RY* RY* RY* RY* RY* RY* RY* RY* RY* RY* RY* RY* RY* 
 Labels of output orbitals:  RY* RY* RY* RY* RY* RY* RY* RY* RY* RY* RY* RY* RY* RY* RY* RY* 
 1|1|UNPC-CCX|SP|UB3LYP|6-311+G(d)|C5Ni2O5(1-,2)|CCX|23-Oct-2016|0||# u
 b3lyp/6-311+g(d) guess=read geom=allcheck pop=(nboread,savenbo)||Title
  Card Required||-1,2|Ni,0.,1.23199,0.031814|Ni,0.,-1.23199,0.031814|C,
 0.597858,2.733456,0.766975|C,-0.751323,1.379492,-1.594741|C,0.,0.,1.49
 773|C,0.751323,-1.379492,-1.594741|C,-0.597858,-2.733456,0.766975|O,0.
 964576,3.732486,1.216812|O,0.,0.,2.677168|O,1.283823,-1.53983,-2.60756
 9|O,-0.964576,-3.732486,1.216812|O,-1.283823,1.53983,-2.607569||Versio
 n=IA32W-G09RevA.02|State=2-B|HF=-3583.6158307|S2=0.765576|S2-1=0.|S2A=
 0.750209|RMSD=1.115e-009|Dipole=0.,0.,-0.3263513|Quadrupole=10.189945,
 -6.7876931,-3.4022519,-2.1643237,0.,0.|PG=C02 [C2(C1O1),X(C4Ni2O4)]||@


 Luck is a matter of preparation meeting opportunity.
                                    -- Oprah Winfrey
 Job cpu time:  0 days  0 hours  3 minutes 35.0 seconds.
 File lengths (MBytes):  RWF=    109 Int=      0 D2E=      0 Chk=     10 Scr=      1
 Normal termination of Gaussian 09 at Sun Oct 23 15:13:27 2016.
