 Entering Link 1 = C:\G09W\l1.exe PID=      6516.
  
 Copyright (c) 1988,1990,1992,1993,1995,1998,2003,2009, Gaussian, Inc.
                  All Rights Reserved.
  
 This is part of the Gaussian(R) 09 program.  It is based on
 the Gaussian(R) 03 system (copyright 2003, Gaussian, Inc.),
 the Gaussian(R) 98 system (copyright 1998, Gaussian, Inc.),
 the Gaussian(R) 94 system (copyright 1995, Gaussian, Inc.),
 the Gaussian 92(TM) system (copyright 1992, Gaussian, Inc.),
 the Gaussian 90(TM) system (copyright 1990, Gaussian, Inc.),
 the Gaussian 88(TM) system (copyright 1988, Gaussian, Inc.),
 the Gaussian 86(TM) system (copyright 1986, Carnegie Mellon
 University), and the Gaussian 82(TM) system (copyright 1983,
 Carnegie Mellon University). Gaussian is a federally registered
 trademark of Gaussian, Inc.
  
 This software contains proprietary and confidential information,
 including trade secrets, belonging to Gaussian, Inc.
  
 This software is provided under written license and may be
 used, copied, transmitted, or stored only in accord with that
 written license.
  
 The following legend is applicable only to US Government
 contracts under FAR:
  
                    RESTRICTED RIGHTS LEGEND
  
 Use, reproduction and disclosure by the US Government is
 subject to restrictions as set forth in subparagraphs (a)
 and (c) of the Commercial Computer Software - Restricted
 Rights clause in FAR 52.227-19.
  
 Gaussian, Inc.
 340 Quinnipiac St., Bldg. 40, Wallingford CT 06492
  
  
 ---------------------------------------------------------------
 Warning -- This program may not be used in any manner that
 competes with the business of Gaussian, Inc. or will provide
 assistance to any competitor of Gaussian, Inc.  The licensee
 of this program is prohibited from giving any competitor of
 Gaussian, Inc. access to this program.  By using this program,
 the user acknowledges that Gaussian, Inc. is engaged in the
 business of creating and licensing software in the field of
 computational chemistry and represents and warrants to the
 licensee that it is not a competitor of Gaussian, Inc. and that
 it will not use this program in any manner prohibited above.
 ---------------------------------------------------------------
  

 Cite this work as:
 Gaussian 09, Revision A.02,
 M. J. Frisch, G. W. Trucks, H. B. Schlegel, G. E. Scuseria, 
 M. A. Robb, J. R. Cheeseman, G. Scalmani, V. Barone, B. Mennucci, 
 G. A. Petersson, H. Nakatsuji, M. Caricato, X. Li, H. P. Hratchian, 
 A. F. Izmaylov, J. Bloino, G. Zheng, J. L. Sonnenberg, M. Hada, 
 M. Ehara, K. Toyota, R. Fukuda, J. Hasegawa, M. Ishida, T. Nakajima, 
 Y. Honda, O. Kitao, H. Nakai, T. Vreven, J. A. Montgomery, Jr., 
 J. E. Peralta, F. Ogliaro, M. Bearpark, J. J. Heyd, E. Brothers, 
 K. N. Kudin, V. N. Staroverov, R. Kobayashi, J. Normand, 
 K. Raghavachari, A. Rendell, J. C. Burant, S. S. Iyengar, J. Tomasi, 
 M. Cossi, N. Rega, J. M. Millam, M. Klene, J. E. Knox, J. B. Cross, 
 V. Bakken, C. Adamo, J. Jaramillo, R. Gomperts, R. E. Stratmann, 
 O. Yazyev, A. J. Austin, R. Cammi, C. Pomelli, J. W. Ochterski, 
 R. L. Martin, K. Morokuma, V. G. Zakrzewski, G. A. Voth, 
 P. Salvador, J. J. Dannenberg, S. Dapprich, A. D. Daniels, 
 O. Farkas, J. B. Foresman, J. V. Ortiz, J. Cioslowski, 
 and D. J. Fox, Gaussian, Inc., Wallingford CT, 2009.
 
 ******************************************
 Gaussian 09:  IA32W-G09RevA.02 11-Jun-2009
                20-Oct-2016 
 ******************************************
 %nprocshared=1
 Will use up to    1 processors via shared memory.
 %chk=D:\Gaussian Result\CrFeCO-\CrFeCO- OK_meng\Ni2CO6-_33_D3d_2th_4_big_chk.chk
 %mem=400MB
 ----------------------------------------------------------------------
 # opt=(tight,cartesian) freq ub3lyp/6-311+g(d) int=ultrafine iop(1/8=1
 0) scf=(maxcyc=80,xqc) symm=on
 ----------------------------------------------------------------------
 1/7=10,8=10,10=7,14=-1,18=10,26=3,38=1/1,3;
 2/12=2,15=-1,17=6,18=5,29=2,40=1/2;
 3/5=4,6=6,7=11,11=2,16=1,25=1,30=1,71=1,74=-5,75=-5,116=2/1,2,3;
 4//1;
 5/5=2,7=80,8=3,13=1,38=5/2,8;
 6/7=2,8=2,9=2,10=2,28=1/1;
 7/7=1,29=1,30=1/1,2,3,16;
 1/7=10,8=10,10=7,14=-1,18=10/3(2);
 2/29=1/2;
 99/12=1/99;
 2/29=1/2;
 3/5=4,6=6,7=11,11=2,16=1,25=1,30=1,71=1,74=-5,75=-5,116=2/1,2,3;
 4/5=5,16=3/1;
 5/5=2,7=80,8=3,13=1,38=5/2,8;
 7/7=1,30=1/1,2,3,16;
 1/7=10,8=10,14=-1,18=10/3(-5);
 2/29=1/2;
 6/7=2,8=2,9=2,10=2,19=2,28=1/1;
 99/9=1,12=1/99;
 -------------------------
 from Ni2CO6-_33_D3d_2th_2
 -------------------------
 Symbolic Z-matrix:
 Charge = -1 Multiplicity = 2
 Ni                    0.        0.        1.42341 
 Ni                    0.        0.       -1.42341 
 C                     0.        1.78953   1.58731 
 C                     1.54978  -0.89477   1.58731 
 C                    -1.54978  -0.89477   1.58731 
 C                    -1.54978   0.89477  -1.58731 
 C                     0.       -1.78953  -1.58731 
 C                     1.54978   0.89477  -1.58731 
 O                     0.        2.93713   1.70273 
 O                    -2.54363  -1.46857   1.70273 
 O                    -2.54363   1.46857  -1.70273 
 O                     0.       -2.93713  -1.70273 
 O                     2.54363   1.46857  -1.70273 
 O                     2.54363  -1.46857   1.70273 
 

 GradGradGradGradGradGradGradGradGradGradGradGradGradGradGradGradGradGrad
 Berny optimization.
 Initialization pass.
 No Z-matrix variables, so optimization will use Cartesian coordinates.
 Trust Radius=1.00D-01 FncErr=1.00D-07 GrdErr=1.00D-06
 Number of steps in this run=  52 maximum allowed number of steps= 100.
 GradGradGradGradGradGradGradGradGradGradGradGradGradGradGradGradGradGrad

 ---------------------------------------------------------------------------------------------------
                            Z-MATRIX (ANGSTROMS AND DEGREES)
   CD    Cent   Atom    N1       Length/X        N2       Alpha/Y        N3        Beta/Z          J
 ---------------------------------------------------------------------------------------------------
      1      1  Ni       0   0.000000          0.000000          1.423409
      2      2  Ni       0   0.000000          0.000000         -1.423409
      3      3  C        0   0.000000          1.789530          1.587308
      4      4  C        0   1.549778         -0.894766          1.587308
      5      5  C        0  -1.549779         -0.894765          1.587308
      6      6  C        0  -1.549778          0.894766         -1.587308
      7      7  C        0   0.000000         -1.789530         -1.587308
      8      8  C        0   1.549779          0.894765         -1.587308
      9      9  O        0   0.000000          2.937134          1.702729
     10     10  O        0  -2.543633         -1.468567          1.702729
     11     11  O        0  -2.543633          1.468567         -1.702729
     12     12  O        0   0.000000         -2.937134         -1.702729
     13     13  O        0   2.543633          1.468567         -1.702729
     14     14  O        0   2.543633         -1.468567          1.702729
 ---------------------------------------------------------------------------------------------------
                         Z-Matrix orientation:                         
 ---------------------------------------------------------------------
 Center     Atomic      Atomic             Coordinates (Angstroms)
 Number     Number       Type             X           Y           Z
 ---------------------------------------------------------------------
      1         28           0        0.000000    0.000000    1.423409
      2         28           0        0.000000    0.000000   -1.423409
      3          6           0        0.000000    1.789530    1.587308
      4          6           0        1.549778   -0.894766    1.587308
      5          6           0       -1.549779   -0.894765    1.587308
      6          6           0       -1.549778    0.894766   -1.587308
      7          6           0        0.000000   -1.789530   -1.587308
      8          6           0        1.549779    0.894765   -1.587308
      9          8           0        0.000000    2.937134    1.702729
     10          8           0       -2.543633   -1.468567    1.702729
     11          8           0       -2.543633    1.468567   -1.702729
     12          8           0        0.000000   -2.937134   -1.702729
     13          8           0        2.543633    1.468567   -1.702729
     14          8           0        2.543633   -1.468567    1.702729
 ---------------------------------------------------------------------
                    Distance matrix (angstroms):
                    1          2          3          4          5
     1  Ni   0.000000
     2  Ni   2.846818   0.000000
     3  C    1.797020   3.502404   0.000000
     4  C    1.797020   3.502404   3.099558   0.000000
     5  C    1.797020   3.502404   3.099557   3.099557   0.000000
     6  C    3.502404   1.797020   3.644256   4.784126   3.644257
     7  C    3.502404   1.797020   4.784126   3.644256   3.644257
     8  C    3.502404   1.797020   3.644257   3.644257   4.784126
     9  O    2.950386   4.289463   1.153394   4.135044   4.135044
    10  O    2.950386   4.289463   4.135044   4.135043   1.153393
    11  O    4.289463   2.950386   4.171023   5.758967   4.171022
    12  O    4.289463   2.950386   5.758967   4.171022   4.171023
    13  O    4.289463   2.950386   4.171023   4.171023   5.758967
    14  O    2.950386   4.289463   4.135044   1.153394   4.135044
                    6          7          8          9         10
     6  C    0.000000
     7  C    3.099558   0.000000
     8  C    3.099557   3.099557   0.000000
     9  O    4.171022   5.758967   4.171023   0.000000
    10  O    4.171023   4.171023   5.758967   5.087265   0.000000
    11  O    1.153394   4.135044   4.135044   4.497099   4.497099
    12  O    4.135044   1.153394   4.135044   6.790005   4.497099
    13  O    4.135043   4.135044   1.153393   4.497099   6.790006
    14  O    5.758967   4.171023   4.171022   5.087265   5.087266
                   11         12         13         14
    11  O    0.000000
    12  O    5.087265   0.000000
    13  O    5.087266   5.087265   0.000000
    14  O    6.790006   4.497099   4.497099   0.000000
 Stoichiometry    C6Ni2O6(1-,2)
 Framework group  D3D[C3(Ni.Ni),3SGD(C2O2)]
 Deg. of freedom     5
 Full point group                 D3D     NOp  12
 Largest Abelian subgroup         C2H     NOp   4
 Largest concise Abelian subgroup C2H     NOp   4
                         Standard orientation:                         
 ---------------------------------------------------------------------
 Center     Atomic      Atomic             Coordinates (Angstroms)
 Number     Number       Type             X           Y           Z
 ---------------------------------------------------------------------
      1         28           0        0.000000    0.000000    1.423409
      2         28           0        0.000000    0.000000   -1.423409
      3          6           0        0.000000    1.789530    1.587308
      4          6           0        1.549778   -0.894765    1.587308
      5          6           0       -1.549778   -0.894765    1.587308
      6          6           0       -1.549778    0.894765   -1.587308
      7          6           0        0.000000   -1.789530   -1.587308
      8          6           0        1.549778    0.894765   -1.587308
      9          8           0        0.000000    2.937134    1.702729
     10          8           0       -2.543633   -1.468567    1.702729
     11          8           0       -2.543633    1.468567   -1.702729
     12          8           0        0.000000   -2.937134   -1.702729
     13          8           0        2.543633    1.468567   -1.702729
     14          8           0        2.543633   -1.468567    1.702729
 ---------------------------------------------------------------------
 Rotational constants (GHZ):      0.4774576      0.4130078      0.4130078
 Standard basis: 6-311+G(d) (5D, 7F)
 There are   116 symmetry adapted basis functions of AG  symmetry.
 There are    74 symmetry adapted basis functions of BG  symmetry.
 There are    74 symmetry adapted basis functions of AU  symmetry.
 There are   116 symmetry adapted basis functions of BU  symmetry.
 Integral buffers will be    262144 words long.
 Raffenetti 2 integral format.
 Two-electron integral symmetry is turned on.
   380 basis functions,   620 primitive gaussians,   406 cartesian basis functions
    71 alpha electrons       70 beta electrons
       nuclear repulsion energy      1487.3936888513 Hartrees.
 NAtoms=   14 NActive=   14 NUniq=    3 SFac= 3.00D+00 NAtFMM=   80 NAOKFM=F Big=F
 One-electron integrals computed using PRISM.
 NBasis=   380 RedAO= T  NBF=   116    74    74   116
 NBsUse=   380 1.00D-06 NBFU=   116    74    74   116
 Harris functional with IExCor=  402 diagonalized for initial guess.
 ExpMin= 1.39D-02 ExpMax= 2.85D+05 ExpMxC= 9.63D+03 IAcc=3 IRadAn=         5 AccDes= 0.00D+00
 HarFok:  IExCor=  402 AccDes= 0.00D+00 IRadAn=         5 IDoV= 1
 ScaDFX=  1.000000  1.000000  1.000000  1.000000
 FoFCou: FMM=F IPFlag=           0 FMFlag=      100000 FMFlg1=           0
         NFxFlg=           0 DoJE=T BraDBF=F KetDBF=T FulRan=T
         Omega=  0.000000  0.000000  1.000000  0.000000  0.000000 ICntrl=     500 IOpCl=  0
         NMat0=    1 NMatS0=    1 NMatT0=    0 NMatD0=    1 NMtDS0=    0 NMtDT0=    0
         I1Cent=           4 NGrid=           0.
 Petite list used in FoFCou.
 Initial guess orbital symmetries:
 Alpha Orbitals:
       Occupied  (A2U) (A1G) (A2U) (A1G) (EG) (EG) (EU) (EU) (A2U)
                 (A1G) (EU) (EU) (EG) (EG) (A2U) (A1G) (A1G) (EU)
                 (EU) (EG) (EG) (A2U) (A1G) (A2U) (EU) (EU) (EG)
                 (EG) (A1G) (A2U) (A1G) (EU) (EU) (A2U) (EG) (EG)
                 (A1G) (A2U) (EU) (EU) (EG) (EG) (A1G) (A2U) (EG)
                 (EG) (EU) (EU) (A1G) (EU) (EU) (EG) (EG) (A2U)
                 (A1U) (A2G) (EU) (EU) (EG) (EG) (EU) (EU) (EG)
                 (EG) (EU) (EU) (A1G) (EG) (EG) (A2U) (A1G)
       Virtual   (A2U) (A1U) (A2G) (EU) (EU) (EG) (EG) (EG) (EG)
                 (EU) (EU) (A1G) (A2U) (EU) (EU) (EG) (EG) (A1G)
                 (EG) (EG) (A1G) (A2U) (A1G) (A2U) (EU) (EU) (EU)
                 (EU) (A2U) (A1U) (A1G) (EG) (EG) (A1G) (EU) (EU)
                 (A2G) (EG) (EG) (A2U) (A2U) (EG) (EG) (EU) (EU)
                 (A1G) (EG) (EG) (EG) (EG) (EU) (EU) (EU) (EU)
                 (A1G) (A2U) (A2U) (EU) (EU) (A1G) (EG) (EG) (EU)
                 (EU) (A2U) (A1G) (A2G) (A2U) (EG) (EG) (EG) (EG)
                 (A1U) (A1G) (A2U) (EU) (EU) (EU) (EU) (EG) (EG)
                 (A1G) (EG) (EG) (EU) (EU) (A2U) (A1G) (EU) (EU)
                 (A1U) (EG) (EG) (A2U) (A2G) (EG) (EG) (A2U) (EU)
                 (EU) (A1G) (EG) (EG) (EU) (EU) (A1G) (EG) (EG)
                 (A2U) (EU) (EU) (EG) (EG) (EU) (EU) (A2U) (EG)
                 (EG) (A1G) (EU) (EU) (EG) (EG) (EU) (EU) (A1U)
                 (A1G) (A2G) (EU) (EU) (A2U) (EG) (EG) (A2U) (A1G)
                 (A2G) (A1U) (EU) (EU) (EG) (EG) (A1U) (A2G) (EU)
                 (EU) (EG) (EG) (A1G) (A1G) (A2U) (EG) (EG) (EU)
                 (EU) (A2U) (EG) (EG) (EU) (EU) (EU) (EU) (A1G)
                 (A2U) (EG) (EG) (A2U) (A1G) (EG) (EG) (EU) (EU)
                 (EG) (EG) (EU) (EU) (A1G) (EU) (EU) (EG) (EG)
                 (A2U) (A2U) (A1G) (A1U) (A2G) (EU) (EU) (A1G)
                 (EG) (EG) (EG) (EG) (EU) (EU) (A2U) (A1U) (A2G)
                 (EU) (EU) (EG) (EG) (A1G) (EU) (EU) (EG) (EG)
                 (A2U) (EU) (EU) (EG) (EG) (A1G) (A2U) (EU) (EU)
                 (EG) (EG) (A1U) (A2G) (A1G) (EU) (EU) (EG) (EG)
                 (A2U) (EU) (EU) (EG) (EG) (A1G) (A2U) (EG) (EG)
                 (EU) (EU) (A1G) (A2U) (A1U) (A2G) (EU) (EU) (EG)
                 (EG) (EU) (EU) (EG) (EG) (A2U) (A1G) (A1G) (A2U)
                 (A1G) (A1U) (EG) (EG) (EU) (EU) (A2G) (EG) (EG)
                 (EU) (EU) (A2U) (EG) (EG) (EU) (EU) (A2U) (A1G)
                 (EG) (EG) (EU) (EU) (A2U) (A1G) (EU) (EU) (EG)
                 (EG) (A1G) (A2U) (EU) (EU) (EG) (EG) (A2U) (A1G)
                 (EU) (EU) (EG) (EG) (A1G) (A2U) (A1G) (A2U) (EU)
                 (EU) (EG) (EG) (A1G) (A2U) (EG) (EG) (EU) (EU)
                 (A1G) (A2U) (A1G) (A2U)
 Beta  Orbitals:
       Occupied  (A2U) (A1G) (A2U) (A1G) (EG) (EG) (EU) (EU) (A2U)
                 (A1G) (EU) (EU) (EG) (EG) (A2U) (A1G) (A1G) (EU)
                 (EU) (EG) (EG) (A2U) (A1G) (A2U) (EU) (EU) (EG)
                 (EG) (A1G) (A2U) (A1G) (EU) (EU) (A2U) (EG) (EG)
                 (A1G) (A2U) (EU) (EU) (EG) (EG) (A1G) (A2U) (EG)
                 (EG) (EU) (EU) (A1G) (EU) (EU) (EG) (EG) (A2U)
                 (A1U) (A2G) (EU) (EU) (EG) (EG) (EU) (EU) (EG)
                 (EG) (EU) (EU) (A1G) (EG) (EG) (A2U)
       Virtual   (A1G) (A2U) (A1U) (A2G) (EU) (EU) (EG) (EG) (EG)
                 (EG) (EU) (EU) (A1G) (A2U) (EU) (EU) (EG) (EG)
                 (A1G) (EG) (EG) (A1G) (A2U) (A1G) (A2U) (EU) (EU)
                 (EU) (EU) (A2U) (A1U) (A1G) (EG) (EG) (A1G) (EU)
                 (EU) (A2G) (EG) (EG) (A2U) (A2U) (EG) (EG) (EU)
                 (EU) (A1G) (EG) (EG) (EG) (EG) (EU) (EU) (EU)
                 (EU) (A1G) (A2U) (A2U) (EU) (EU) (A1G) (EG) (EG)
                 (EU) (EU) (A2U) (A1G) (A2G) (A2U) (EG) (EG) (EG)
                 (EG) (A1U) (A1G) (A2U) (EU) (EU) (EU) (EU) (EG)
                 (EG) (A1G) (EG) (EG) (EU) (EU) (A2U) (A1G) (EU)
                 (EU) (A1U) (EG) (EG) (A2U) (A2G) (EG) (EG) (A2U)
                 (EU) (EU) (A1G) (EG) (EG) (EU) (EU) (A1G) (EG)
                 (EG) (A2U) (EU) (EU) (EG) (EG) (EU) (EU) (A2U)
                 (EG) (EG) (A1G) (EU) (EU) (EG) (EG) (EU) (EU)
                 (A1U) (A1G) (A2G) (EU) (EU) (A2U) (EG) (EG) (A2U)
                 (A1G) (A2G) (A1U) (EU) (EU) (EG) (EG) (A1U) (A2G)
                 (EU) (EU) (EG) (EG) (A1G) (A1G) (A2U) (EG) (EG)
                 (EU) (EU) (A2U) (EG) (EG) (EU) (EU) (EU) (EU)
                 (A1G) (A2U) (EG) (EG) (A2U) (A1G) (EG) (EG) (EU)
                 (EU) (EG) (EG) (EU) (EU) (A1G) (EU) (EU) (EG)
                 (EG) (A2U) (A2U) (A1G) (A1U) (A2G) (EU) (EU) (A1G)
                 (EG) (EG) (EG) (EG) (EU) (EU) (A2U) (A1U) (A2G)
                 (EU) (EU) (EG) (EG) (A1G) (EU) (EU) (EG) (EG)
                 (A2U) (EU) (EU) (EG) (EG) (A1G) (A2U) (EU) (EU)
                 (EG) (EG) (A1U) (A2G) (A1G) (EU) (EU) (EG) (EG)
                 (A2U) (EU) (EU) (EG) (EG) (A1G) (A2U) (EG) (EG)
                 (EU) (EU) (A1G) (A2U) (A1U) (A2G) (EU) (EU) (EG)
                 (EG) (EU) (EU) (EG) (EG) (A2U) (A1G) (A1G) (A2U)
                 (A1G) (A1U) (EG) (EG) (EU) (EU) (A2G) (EG) (EG)
                 (EU) (EU) (A2U) (EG) (EG) (EU) (EU) (A2U) (A1G)
                 (EG) (EG) (EU) (EU) (A2U) (A1G) (EU) (EU) (EG)
                 (EG) (A1G) (A2U) (EU) (EU) (EG) (EG) (A2U) (A1G)
                 (EU) (EU) (EG) (EG) (A1G) (A2U) (A1G) (A2U) (EU)
                 (EU) (EG) (EG) (A1G) (A2U) (EG) (EG) (EU) (EU)
                 (A1G) (A2U) (A1G) (A2U)
 The electronic state of the initial guess is 2-A1G.
 Initial guess <Sx>= 0.0000 <Sy>= 0.0000 <Sz>= 0.5000 <S**2>= 0.7500 S= 0.5000
 Requested convergence on RMS density matrix=1.00D-08 within  80 cycles.
 Requested convergence on MAX density matrix=1.00D-06.
 Requested convergence on             energy=1.00D-06.
 No special actions if energy rises.
 EnCoef did   100 forward-backward iterations
 EnCoef did   100 forward-backward iterations
 SCF Done:  E(UB3LYP) =  -3697.00064174     A.U. after   17 cycles
             Convg  =    0.2393D-08             -V/T =  2.0013
 <Sx>= 0.0000 <Sy>= 0.0000 <Sz>= 0.5000 <S**2>= 0.7616 S= 0.5058
 <L.S>= 0.000000000000E+00
 Annihilation of the first spin contaminant:
 S**2 before annihilation     0.7616,   after     0.7501
 QCSCF skips out because SCF is already converged.

 **********************************************************************

            Population analysis using the SCF density.

 **********************************************************************

 Orbital symmetries:
 Alpha Orbitals:
       Occupied  (A2U) (A1G) (A2U) (A1G) (EG) (EG) (EU) (EU) (A2U)
                 (A1G) (EU) (EU) (EG) (EG) (A2U) (A1G) (A1G) (EU)
                 (EU) (EG) (EG) (A2U) (A1G) (A2U) (EU) (EU) (EG)
                 (EG) (A1G) (A2U) (A1G) (EU) (EU) (A2U) (EG) (EG)
                 (A1G) (A2U) (EU) (EU) (EG) (EG) (A1G) (A2U) (A1G)
                 (EU) (EU) (EG) (EG) (EU) (EU) (EG) (EG) (A2U)
                 (A1U) (A2G) (EU) (EU) (EG) (EG) (EU) (EU) (A1G)
                 (EG) (EG) (EU) (EU) (EG) (EG) (A2U) (A1G)
       Virtual   (A2U) (A1G) (A2U) (EG) (EG) (EU) (EU) (A1U) (EU)
                 (EU) (A2G) (EG) (EG) (EU) (EU) (EG) (EG) (A1G)
                 (EG) (EG) (A1G) (A2U) (EU) (EU) (A2U) (EU) (EU)
                 (A1U) (A2U) (A1G) (EG) (EG) (A2G) (EU) (EU) (EG)
                 (EG) (A1G) (A2U) (A1G) (EG) (EG) (A2U) (EU) (EU)
                 (EG) (EG) (EG) (EG) (EU) (EU) (EU) (EU) (A1G)
                 (A1G) (A2U) (EU) (EU) (EG) (EG) (A2U) (A1G) (A2G)
                 (A1G) (A1U) (A2U) (A2U) (EG) (EG) (EU) (EU) (A1G)
                 (A2U) (EG) (EG) (EU) (EU) (EU) (EU) (EG) (EG)
                 (A1G) (EG) (EG) (EU) (EU) (A1G) (A2U) (EU) (EU)
                 (A1U) (EG) (EG) (A2G) (A2U) (EG) (EG) (EU) (EU)
                 (A2U) (A1G) (EG) (EG) (EU) (EU) (A1G) (A2U) (EG)
                 (EG) (EU) (EU) (EG) (EG) (EU) (EU) (A2U) (A1G)
                 (EG) (EG) (EU) (EU) (EG) (EG) (EU) (EU) (A1G)
                 (A1U) (EU) (EU) (A2G) (A2U) (EG) (EG) (A2U) (A1G)
                 (A2G) (A1U) (EU) (EU) (EG) (EG) (EU) (EU) (A1U)
                 (A2G) (EG) (EG) (A1G) (A1G) (A2U) (EG) (EG) (EU)
                 (EU) (A2U) (EG) (EG) (EU) (EU) (A1G) (EU) (EU)
                 (A2U) (EG) (EG) (A2U) (A1G) (EG) (EG) (EU) (EU)
                 (EG) (EG) (EU) (EU) (A1G) (EU) (EU) (EG) (EG)
                 (A2U) (A2U) (A1G) (A1U) (A2G) (EU) (EU) (A1G)
                 (EG) (EG) (EG) (EG) (EU) (EU) (A1U) (A2G) (EU)
                 (EU) (A2U) (EG) (EG) (A1G) (EU) (EU) (EG) (EG)
                 (A2U) (EU) (EU) (EG) (EG) (A1G) (A2U) (EU) (EU)
                 (EG) (EG) (A1U) (A2G) (A1G) (EU) (EU) (EG) (EG)
                 (A2U) (EU) (EU) (EG) (EG) (A1G) (A2U) (EG) (EG)
                 (EU) (EU) (A1G) (A2U) (A1U) (A2G) (EU) (EU) (EG)
                 (EG) (EU) (EU) (EG) (EG) (A2U) (A1G) (A1G) (A2U)
                 (A1G) (EG) (EG) (EU) (EU) (A1U) (A2G) (EG) (EG)
                 (EU) (EU) (A2U) (EG) (EG) (EU) (EU) (A2U) (A1G)
                 (EG) (EG) (EU) (EU) (A2U) (A1G) (EU) (EU) (EG)
                 (EG) (A1G) (A2U) (EU) (EU) (EG) (EG) (A2U) (A1G)
                 (EU) (EU) (EG) (EG) (A1G) (A2U) (A1G) (A2U) (EU)
                 (EU) (EG) (EG) (A1G) (A2U) (EG) (EG) (EU) (EU)
                 (A1G) (A2U) (A1G) (A2U)
 Beta  Orbitals:
       Occupied  (A2U) (A1G) (A2U) (A1G) (EG) (EG) (EU) (EU) (A2U)
                 (A1G) (EU) (EU) (EG) (EG) (A2U) (A1G) (A1G) (EU)
                 (EU) (EG) (EG) (A2U) (A1G) (A2U) (EU) (EU) (EG)
                 (EG) (A1G) (A2U) (A1G) (EU) (EU) (A2U) (EG) (EG)
                 (A1G) (A2U) (EU) (EU) (EG) (EG) (A1G) (A2U) (EG)
                 (EG) (EU) (EU) (A1G) (EU) (EU) (A1U) (A2G) (EG)
                 (EG) (A2U) (EU) (EU) (EG) (EG) (EU) (EU) (A1G)
                 (EG) (EG) (EU) (EU) (EG) (EG) (A2U)
       Virtual   (A1G) (A2U) (A1G) (A2U) (EG) (EG) (EU) (EU) (A1U)
                 (EU) (EU) (A2G) (EU) (EU) (EG) (EG) (EG) (EG)
                 (A1G) (EG) (EG) (A1G) (A2U) (EU) (EU) (A2U) (EU)
                 (EU) (A1U) (A1G) (A2U) (EG) (EG) (A2G) (EU) (EU)
                 (EG) (EG) (A1G) (A2U) (A1G) (EG) (EG) (A2U) (EU)
                 (EU) (EG) (EG) (EG) (EG) (EU) (EU) (EU) (EU) (A1G)
                 (A1G) (A2U) (EU) (EU) (EG) (EG) (A2U) (A1G) (A2G)
                 (A1U) (A1G) (A2U) (A2U) (EG) (EG) (A1G) (EU) (EU)
                 (A2U) (EG) (EG) (EU) (EU) (EU) (EU) (EG) (EG)
                 (A1G) (EG) (EG) (EU) (EU) (A1G) (A2U) (EU) (EU)
                 (A1U) (EG) (EG) (A2G) (A2U) (EG) (EG) (EU) (EU)
                 (A2U) (A1G) (EG) (EG) (EU) (EU) (A1G) (A2U) (EG)
                 (EG) (EU) (EU) (EG) (EG) (EU) (EU) (A2U) (EG)
                 (EG) (A1G) (EU) (EU) (EU) (EU) (EG) (EG) (A1G)
                 (A1U) (EU) (EU) (A2G) (A2U) (EG) (EG) (A2U) (A1G)
                 (A2G) (A1U) (EU) (EU) (EG) (EG) (A1U) (A2G) (EU)
                 (EU) (EG) (EG) (A1G) (A1G) (A2U) (EG) (EG) (EU)
                 (EU) (A2U) (EG) (EG) (EU) (EU) (A1G) (EU) (EU)
                 (A2U) (EG) (EG) (A2U) (A1G) (EG) (EG) (EU) (EU)
                 (EG) (EG) (EU) (EU) (A1G) (EU) (EU) (EG) (EG)
                 (A2U) (A2U) (A1G) (A1U) (A2G) (EU) (EU) (A1G)
                 (EG) (EG) (EG) (EG) (EU) (EU) (A1U) (A2G) (EU)
                 (EU) (A2U) (EG) (EG) (A1G) (EU) (EU) (EG) (EG)
                 (A2U) (EU) (EU) (EG) (EG) (A1G) (A2U) (EU) (EU)
                 (EG) (EG) (A1U) (A2G) (A1G) (EU) (EU) (EG) (EG)
                 (A2U) (EU) (EU) (EG) (EG) (A1G) (A2U) (EG) (EG)
                 (EU) (EU) (A1G) (A2U) (A1U) (A2G) (EU) (EU) (EG)
                 (EG) (EU) (EU) (EG) (EG) (A2U) (A1G) (A1G) (A2U)
                 (A1G) (A1U) (EG) (EG) (EU) (EU) (A2G) (EG) (EG)
                 (EU) (EU) (A2U) (EG) (EG) (EU) (EU) (A2U) (A1G)
                 (EG) (EG) (EU) (EU) (A2U) (A1G) (EU) (EU) (EG)
                 (EG) (A1G) (A2U) (EU) (EU) (EG) (EG) (A2U) (A1G)
                 (EU) (EU) (EG) (EG) (A1G) (A2U) (A1G) (A2U) (EU)
                 (EU) (EG) (EG) (A1G) (A2U) (EG) (EG) (EU) (EU)
                 (A1G) (A2U) (A1G) (A2U)
 The electronic state is 2-A1G.
 Alpha  occ. eigenvalues -- -299.67975-299.67975 -35.60928 -35.60928 -31.05652
 Alpha  occ. eigenvalues --  -31.05652 -31.05652 -31.05652 -31.04554 -31.04554
 Alpha  occ. eigenvalues --  -19.07139 -19.07139 -19.07138 -19.07138 -19.07138
 Alpha  occ. eigenvalues --  -19.07138 -10.15183 -10.15183 -10.15183 -10.15182
 Alpha  occ. eigenvalues --  -10.15182 -10.15182  -3.86788  -3.86783  -2.46571
 Alpha  occ. eigenvalues --   -2.46571  -2.46569  -2.46569  -2.44262  -2.44208
 Alpha  occ. eigenvalues --   -1.00626  -1.00605  -1.00605  -1.00601  -1.00592
 Alpha  occ. eigenvalues --   -1.00592  -0.45462  -0.44872  -0.43895  -0.43895
 Alpha  occ. eigenvalues --   -0.43765  -0.43765  -0.35466  -0.34508  -0.33340
 Alpha  occ. eigenvalues --   -0.33290  -0.33290  -0.33236  -0.33236  -0.32876
 Alpha  occ. eigenvalues --   -0.32876  -0.32742  -0.32742  -0.32643  -0.32377
 Alpha  occ. eigenvalues --   -0.32186  -0.31106  -0.31106  -0.30656  -0.30656
 Alpha  occ. eigenvalues --   -0.14519  -0.14519  -0.13749  -0.13501  -0.13501
 Alpha  occ. eigenvalues --   -0.12097  -0.12097  -0.10512  -0.10512  -0.10324
 Alpha  occ. eigenvalues --   -0.02797
 Alpha virt. eigenvalues --    0.06996   0.08743   0.09158   0.10356   0.10356
 Alpha virt. eigenvalues --    0.10533   0.10533   0.11417   0.11656   0.11656
 Alpha virt. eigenvalues --    0.12006   0.12037   0.12037   0.12848   0.12848
 Alpha virt. eigenvalues --    0.14719   0.14719   0.15686   0.15838   0.15838
 Alpha virt. eigenvalues --    0.17366   0.17550   0.18229   0.18229   0.18528
 Alpha virt. eigenvalues --    0.20782   0.20782   0.21622   0.22036   0.22131
 Alpha virt. eigenvalues --    0.23625   0.23625   0.24189   0.26267   0.26267
 Alpha virt. eigenvalues --    0.26746   0.26746   0.27235   0.27662   0.28403
 Alpha virt. eigenvalues --    0.33199   0.33199   0.34453   0.35657   0.35657
 Alpha virt. eigenvalues --    0.36390   0.36390   0.37090   0.37090   0.37460
 Alpha virt. eigenvalues --    0.37460   0.38063   0.38063   0.38385   0.39796
 Alpha virt. eigenvalues --    0.40260   0.40885   0.40885   0.42256   0.42256
 Alpha virt. eigenvalues --    0.43045   0.43144   0.44395   0.45152   0.45428
 Alpha virt. eigenvalues --    0.45596   0.47574   0.47862   0.47862   0.48807
 Alpha virt. eigenvalues --    0.48807   0.48924   0.51473   0.53525   0.53525
 Alpha virt. eigenvalues --    0.53894   0.53894   0.58235   0.58235   0.62204
 Alpha virt. eigenvalues --    0.62204   0.64956   0.68127   0.68127   0.68357
 Alpha virt. eigenvalues --    0.68357   0.71944   0.72134   0.73896   0.73896
 Alpha virt. eigenvalues --    0.74447   0.77154   0.77154   0.80970   0.81157
 Alpha virt. eigenvalues --    0.81930   0.81930   0.82657   0.82657   0.84347
 Alpha virt. eigenvalues --    0.87858   0.91469   0.91469   0.93335   0.93335
 Alpha virt. eigenvalues --    0.95546   0.97049   0.98075   0.98075   1.01782
 Alpha virt. eigenvalues --    1.01782   1.05965   1.05965   1.10544   1.10544
 Alpha virt. eigenvalues --    1.16515   1.22121   1.22167   1.22167   1.23568
 Alpha virt. eigenvalues --    1.23568   1.25257   1.25257   1.25317   1.25317
 Alpha virt. eigenvalues --    1.26540   1.26743   1.27752   1.27752   1.28167
 Alpha virt. eigenvalues --    1.29500   1.29925   1.29925   1.32737   1.33859
 Alpha virt. eigenvalues --    1.39696   1.40046   1.42252   1.42252   1.44167
 Alpha virt. eigenvalues --    1.44167   1.46881   1.46881   1.46977   1.47187
 Alpha virt. eigenvalues --    1.51188   1.51188   1.51414   1.56886   1.57900
 Alpha virt. eigenvalues --    1.59082   1.59082   1.62301   1.62301   1.67425
 Alpha virt. eigenvalues --    1.68136   1.68136   1.70770   1.70770   1.74756
 Alpha virt. eigenvalues --    1.77254   1.77254   1.77769   1.81184   1.81184
 Alpha virt. eigenvalues --    1.89261   1.93097   1.95670   1.95670   1.98355
 Alpha virt. eigenvalues --    1.98355   2.01156   2.01156   2.02165   2.02165
 Alpha virt. eigenvalues --    2.12624   2.23292   2.23292   2.38026   2.38026
 Alpha virt. eigenvalues --    2.44060   2.55056   2.60948   2.74615   2.79497
 Alpha virt. eigenvalues --    2.81038   2.81038   2.81476   2.84315   2.84315
 Alpha virt. eigenvalues --    2.87756   2.87756   2.91144   2.91144   2.92107
 Alpha virt. eigenvalues --    2.92113   2.92309   2.92309   2.92407   2.92927
 Alpha virt. eigenvalues --    2.92927   2.93014   2.93053   2.93053   2.93282
 Alpha virt. eigenvalues --    2.93282   2.95812   3.00568   3.00568   3.01124
 Alpha virt. eigenvalues --    3.01124   3.27793   3.31237   3.34710   3.34710
 Alpha virt. eigenvalues --    3.35393   3.35393   3.45207   3.45408   3.47382
 Alpha virt. eigenvalues --    3.47996   3.47996   3.48137   3.48137   3.48661
 Alpha virt. eigenvalues --    3.54210   3.54210   3.54439   3.54439   3.79696
 Alpha virt. eigenvalues --    3.80631   3.82097   3.82097   3.82182   3.82182
 Alpha virt. eigenvalues --    3.83040   3.84452   3.90293   3.90370   3.90806
 Alpha virt. eigenvalues --    3.90806   3.93764   3.93764   4.09938   4.09938
 Alpha virt. eigenvalues --    4.13484   4.13484   4.14262   4.15995   4.47520
 Alpha virt. eigenvalues --    4.47843   5.12708   5.14430   5.14430   5.14509
 Alpha virt. eigenvalues --    5.14509   5.14588   5.16093   5.17125   5.17125
 Alpha virt. eigenvalues --    5.18958   5.18958   5.20312   5.76924   5.76924
 Alpha virt. eigenvalues --    5.77485   5.77485   5.79122   5.80952   6.99998
 Alpha virt. eigenvalues --    6.99998   7.03005   7.03005   7.07841   7.13757
 Alpha virt. eigenvalues --    7.24500   7.24500   7.25461   7.25461   9.00203
 Alpha virt. eigenvalues --    9.18459   9.33862   9.33862   9.46281   9.46281
 Alpha virt. eigenvalues --   23.99772  23.99932  24.01898  24.01898  24.02005
 Alpha virt. eigenvalues --   24.02005  30.16421  30.19516  36.48984  36.65576
 Alpha virt. eigenvalues --   36.74049  36.74049  36.85402  36.85402  50.11183
 Alpha virt. eigenvalues --   50.13340  50.13769  50.13769  50.15632  50.15632
 Alpha virt. eigenvalues --  162.54091 162.56634 845.25286 845.27881
  Beta  occ. eigenvalues -- -299.67951-299.67951 -35.61197 -35.61197 -31.05854
  Beta  occ. eigenvalues --  -31.05854 -31.05854 -31.05854 -31.04765 -31.04764
  Beta  occ. eigenvalues --  -19.06974 -19.06974 -19.06974 -19.06974 -19.06974
  Beta  occ. eigenvalues --  -19.06974 -10.15105 -10.15104 -10.15104 -10.15104
  Beta  occ. eigenvalues --  -10.15104 -10.15104  -3.87314  -3.87310  -2.47110
  Beta  occ. eigenvalues --   -2.47110  -2.47107  -2.47107  -2.44824  -2.44773
  Beta  occ. eigenvalues --   -1.00349  -1.00329  -1.00329  -1.00324  -1.00316
  Beta  occ. eigenvalues --   -1.00316  -0.44984  -0.44454  -0.43537  -0.43537
  Beta  occ. eigenvalues --   -0.43419  -0.43419  -0.35084  -0.34148  -0.32988
  Beta  occ. eigenvalues --   -0.32988  -0.32831  -0.32831  -0.32438  -0.32349
  Beta  occ. eigenvalues --   -0.32349  -0.32213  -0.32021  -0.32000  -0.32000
  Beta  occ. eigenvalues --   -0.31833  -0.30823  -0.30823  -0.30407  -0.30407
  Beta  occ. eigenvalues --   -0.14728  -0.14728  -0.13896  -0.13838  -0.13838
  Beta  occ. eigenvalues --   -0.12244  -0.12244  -0.10775  -0.10775  -0.10443
  Beta virt. eigenvalues --    0.02009   0.08151   0.08773   0.09410   0.10462
  Beta virt. eigenvalues --    0.10462   0.11305   0.11305   0.11651   0.12075
  Beta virt. eigenvalues --    0.12075   0.12231   0.12896   0.12896   0.13107
  Beta virt. eigenvalues --    0.13107   0.14699   0.14699   0.15757   0.15816
  Beta virt. eigenvalues --    0.15816   0.17451   0.17569   0.18216   0.18216
  Beta virt. eigenvalues --    0.18678   0.20812   0.20812   0.21588   0.22127
  Beta virt. eigenvalues --    0.22148   0.23585   0.23585   0.24113   0.26287
  Beta virt. eigenvalues --    0.26287   0.26838   0.26838   0.27725   0.27750
  Beta virt. eigenvalues --    0.29500   0.33272   0.33272   0.34886   0.35780
  Beta virt. eigenvalues --    0.35780   0.36416   0.36416   0.37168   0.37168
  Beta virt. eigenvalues --    0.37520   0.37520   0.38120   0.38120   0.38555
  Beta virt. eigenvalues --    0.39989   0.40341   0.40917   0.40917   0.42262
  Beta virt. eigenvalues --    0.42262   0.43156   0.43231   0.44382   0.45412
  Beta virt. eigenvalues --    0.45641   0.45877   0.47733   0.48018   0.48018
  Beta virt. eigenvalues --    0.49029   0.49231   0.49231   0.51873   0.53784
  Beta virt. eigenvalues --    0.53784   0.54316   0.54316   0.58655   0.58655
  Beta virt. eigenvalues --    0.62636   0.62636   0.65493   0.68283   0.68283
  Beta virt. eigenvalues --    0.68483   0.68483   0.72391   0.72725   0.74342
  Beta virt. eigenvalues --    0.74342   0.74572   0.77619   0.77619   0.81022
  Beta virt. eigenvalues --    0.81413   0.82005   0.82005   0.82771   0.82771
  Beta virt. eigenvalues --    0.84548   0.87977   0.91577   0.91577   0.93685
  Beta virt. eigenvalues --    0.93685   0.95817   0.97213   0.98601   0.98601
  Beta virt. eigenvalues --    1.01900   1.01900   1.06183   1.06183   1.10828
  Beta virt. eigenvalues --    1.10828   1.16933   1.22305   1.22305   1.22464
  Beta virt. eigenvalues --    1.23835   1.23835   1.25481   1.25481   1.25604
  Beta virt. eigenvalues --    1.25604   1.26655   1.26825   1.27880   1.27880
  Beta virt. eigenvalues --    1.28252   1.29631   1.30037   1.30037   1.33089
  Beta virt. eigenvalues --    1.34121   1.40149   1.40500   1.42700   1.42700
  Beta virt. eigenvalues --    1.44617   1.44617   1.47061   1.47271   1.47309
  Beta virt. eigenvalues --    1.47309   1.51527   1.51527   1.51767   1.57464
  Beta virt. eigenvalues --    1.58308   1.59518   1.59518   1.62833   1.62833
  Beta virt. eigenvalues --    1.67843   1.68303   1.68303   1.70919   1.70919
  Beta virt. eigenvalues --    1.74938   1.77320   1.77320   1.77906   1.81328
  Beta virt. eigenvalues --    1.81328   1.89409   1.93298   1.95859   1.95859
  Beta virt. eigenvalues --    1.98554   1.98554   2.01239   2.01239   2.02297
  Beta virt. eigenvalues --    2.02297   2.13038   2.23444   2.23444   2.38147
  Beta virt. eigenvalues --    2.38147   2.44279   2.55278   2.61158   2.74704
  Beta virt. eigenvalues --    2.79574   2.81518   2.81518   2.82006   2.84726
  Beta virt. eigenvalues --    2.84726   2.88022   2.88022   2.91344   2.91344
  Beta virt. eigenvalues --    2.92605   2.92611   2.92805   2.92805   2.92919
  Beta virt. eigenvalues --    2.93416   2.93416   2.93504   2.93518   2.93518
  Beta virt. eigenvalues --    2.93753   2.93753   2.96329   3.00687   3.00687
  Beta virt. eigenvalues --    3.01270   3.01270   3.27925   3.31396   3.34822
  Beta virt. eigenvalues --    3.34822   3.35509   3.35509   3.45272   3.45473
  Beta virt. eigenvalues --    3.47768   3.48358   3.48358   3.48486   3.48486
  Beta virt. eigenvalues --    3.49045   3.54314   3.54314   3.54554   3.54554
  Beta virt. eigenvalues --    3.79784   3.80544   3.81997   3.81997   3.82075
  Beta virt. eigenvalues --    3.82075   3.82935   3.84520   3.90141   3.90218
  Beta virt. eigenvalues --    3.90988   3.90988   3.93961   3.93961   4.09837
  Beta virt. eigenvalues --    4.09837   4.13371   4.13371   4.14243   4.15993
  Beta virt. eigenvalues --    4.47430   4.47761   5.13352   5.14746   5.14928
  Beta virt. eigenvalues --    5.14928   5.15145   5.15145   5.16251   5.17430
  Beta virt. eigenvalues --    5.17430   5.19124   5.19124   5.20946   5.77080
  Beta virt. eigenvalues --    5.77080   5.77638   5.77638   5.79274   5.81101
  Beta virt. eigenvalues --    6.99674   6.99674   7.02690   7.02690   7.07534
  Beta virt. eigenvalues --    7.13450   7.24219   7.24219   7.25187   7.25187
  Beta virt. eigenvalues --    8.99976   9.18203   9.33598   9.33598   9.46011
  Beta virt. eigenvalues --    9.46011  23.99862  24.00022  24.01986  24.01986
  Beta virt. eigenvalues --   24.02093  24.02093  30.16084  30.19180  36.48709
  Beta virt. eigenvalues --   36.65298  36.73777  36.73777  36.85128  36.85128
  Beta virt. eigenvalues --   50.11346  50.13504  50.13932  50.13932  50.15796
  Beta virt. eigenvalues --   50.15796 162.53966 162.56509 845.25274 845.27868
          Condensed to atoms (all electrons):
              1          2          3          4          5          6
     1  Ni  27.761866  -0.203247  -0.248129  -0.248129  -0.248129   0.085432
     2  Ni  -0.203247  27.761866   0.085432   0.085432   0.085432  -0.248129
     3  C   -0.248129   0.085432   6.709250  -0.087338  -0.087338   0.020636
     4  C   -0.248129   0.085432  -0.087338   6.709250  -0.087338  -0.135580
     5  C   -0.248129   0.085432  -0.087338  -0.087338   6.709250   0.020636
     6  C    0.085432  -0.248129   0.020636  -0.135580   0.020636   6.709250
     7  C    0.085432  -0.248129  -0.135580   0.020636   0.020636  -0.087338
     8  C    0.085432  -0.248129   0.020636   0.020636  -0.135580  -0.087338
     9  O    0.031929   0.007135   0.037109   0.006433   0.006433  -0.006980
    10  O    0.031929   0.007135   0.006433   0.006433   0.037109  -0.006980
    11  O    0.007135   0.031929  -0.006980   0.005560  -0.006980   0.037109
    12  O    0.007135   0.031929   0.005560  -0.006980  -0.006980   0.006433
    13  O    0.007135   0.031929  -0.006980  -0.006980   0.005560   0.006433
    14  O    0.031929   0.007135   0.006433   0.037109   0.006433   0.005560
              7          8          9         10         11         12
     1  Ni   0.085432   0.085432   0.031929   0.031929   0.007135   0.007135
     2  Ni  -0.248129  -0.248129   0.007135   0.007135   0.031929   0.031929
     3  C   -0.135580   0.020636   0.037109   0.006433  -0.006980   0.005560
     4  C    0.020636   0.020636   0.006433   0.006433   0.005560  -0.006980
     5  C    0.020636  -0.135580   0.006433   0.037109  -0.006980  -0.006980
     6  C   -0.087338  -0.087338  -0.006980  -0.006980   0.037109   0.006433
     7  C    6.709250  -0.087338   0.005560  -0.006980   0.006433   0.037109
     8  C   -0.087338   6.709250  -0.006980   0.005560   0.006433   0.006433
     9  O    0.005560  -0.006980   8.037063   0.000468  -0.000165  -0.000024
    10  O   -0.006980   0.005560   0.000468   8.037063  -0.000165  -0.000165
    11  O    0.006433   0.006433  -0.000165  -0.000165   8.037063   0.000468
    12  O    0.037109   0.006433  -0.000024  -0.000165   0.000468   8.037063
    13  O    0.006433   0.037109  -0.000165  -0.000024   0.000468   0.000468
    14  O   -0.006980  -0.006980   0.000468   0.000468  -0.000024  -0.000165
             13         14
     1  Ni   0.007135   0.031929
     2  Ni   0.031929   0.007135
     3  C   -0.006980   0.006433
     4  C   -0.006980   0.037109
     5  C    0.005560   0.006433
     6  C    0.006433   0.005560
     7  C    0.006433  -0.006980
     8  C    0.037109  -0.006980
     9  O   -0.000165   0.000468
    10  O   -0.000024   0.000468
    11  O    0.000468  -0.000024
    12  O    0.000468  -0.000165
    13  O    8.037063  -0.000165
    14  O   -0.000165   8.037063
 Mulliken atomic charges:
              1
     1  Ni   0.812279
     2  Ni   0.812279
     3  C   -0.319144
     4  C   -0.319144
     5  C   -0.319144
     6  C   -0.319144
     7  C   -0.319144
     8  C   -0.319144
     9  O   -0.118282
    10  O   -0.118282
    11  O   -0.118282
    12  O   -0.118282
    13  O   -0.118282
    14  O   -0.118282
 Sum of Mulliken atomic charges =  -1.00000
 Mulliken charges with hydrogens summed into heavy atoms:
              1
     1  Ni   0.812279
     2  Ni   0.812279
     3  C   -0.319144
     4  C   -0.319144
     5  C   -0.319144
     6  C   -0.319144
     7  C   -0.319144
     8  C   -0.319144
     9  O   -0.118282
    10  O   -0.118282
    11  O   -0.118282
    12  O   -0.118282
    13  O   -0.118282
    14  O   -0.118282
 Sum of Mulliken charges with hydrogens summed into heavy atoms =  -1.00000
          Atomic-Atomic Spin Densities.
              1          2          3          4          5          6
     1  Ni  -0.002326   0.013072   0.037233   0.037233   0.037233   0.016349
     2  Ni   0.013072  -0.002326   0.016349   0.016349   0.016349   0.037233
     3  C    0.037233   0.016349   0.022156   0.024817   0.024817  -0.011003
     4  C    0.037233   0.016349   0.024817   0.022156   0.024817   0.009191
     5  C    0.037233   0.016349   0.024817   0.024817   0.022156  -0.011003
     6  C    0.016349   0.037233  -0.011003   0.009191  -0.011003   0.022156
     7  C    0.016349   0.037233   0.009191  -0.011003  -0.011003   0.024817
     8  C    0.016349   0.037233  -0.011003  -0.011003   0.009191   0.024817
     9  O   -0.009976  -0.002338  -0.035628  -0.001099  -0.001099   0.000173
    10  O   -0.009976  -0.002338  -0.001099  -0.001099  -0.035628   0.000173
    11  O   -0.002338  -0.009976   0.000173  -0.000148   0.000173  -0.035628
    12  O   -0.002338  -0.009976  -0.000148   0.000173   0.000173  -0.001099
    13  O   -0.002338  -0.009976   0.000173   0.000173  -0.000148  -0.001099
    14  O   -0.009976  -0.002338  -0.001099  -0.035628  -0.001099  -0.000148
              7          8          9         10         11         12
     1  Ni   0.016349   0.016349  -0.009976  -0.009976  -0.002338  -0.002338
     2  Ni   0.037233   0.037233  -0.002338  -0.002338  -0.009976  -0.009976
     3  C    0.009191  -0.011003  -0.035628  -0.001099   0.000173  -0.000148
     4  C   -0.011003  -0.011003  -0.001099  -0.001099  -0.000148   0.000173
     5  C   -0.011003   0.009191  -0.001099  -0.035628   0.000173   0.000173
     6  C    0.024817   0.024817   0.000173   0.000173  -0.035628  -0.001099
     7  C    0.022156   0.024817  -0.000148   0.000173  -0.001099  -0.035628
     8  C    0.024817   0.022156   0.000173  -0.000148  -0.001099  -0.001099
     9  O   -0.000148   0.000173   0.095808   0.000104   0.000410  -0.000002
    10  O    0.000173  -0.000148   0.000104   0.095808   0.000410   0.000410
    11  O   -0.001099  -0.001099   0.000410   0.000410   0.095808   0.000104
    12  O   -0.035628  -0.001099  -0.000002   0.000410   0.000104   0.095808
    13  O   -0.001099  -0.035628   0.000410  -0.000002   0.000104   0.000104
    14  O    0.000173   0.000173   0.000104   0.000104  -0.000002   0.000410
             13         14
     1  Ni  -0.002338  -0.009976
     2  Ni  -0.009976  -0.002338
     3  C    0.000173  -0.001099
     4  C    0.000173  -0.035628
     5  C   -0.000148  -0.001099
     6  C   -0.001099  -0.000148
     7  C   -0.001099   0.000173
     8  C   -0.035628   0.000173
     9  O    0.000410   0.000104
    10  O   -0.000002   0.000104
    11  O    0.000104  -0.000002
    12  O    0.000104   0.000410
    13  O    0.095808   0.000410
    14  O    0.000410   0.095808
 Mulliken atomic spin densities:
              1
     1  Ni   0.134548
     2  Ni   0.134548
     3  C    0.074926
     4  C    0.074926
     5  C    0.074926
     6  C    0.074926
     7  C    0.074926
     8  C    0.074926
     9  O    0.046891
    10  O    0.046891
    11  O    0.046891
    12  O    0.046891
    13  O    0.046891
    14  O    0.046891
 Sum of Mulliken atomic spin densities =   1.00000
 Electronic spatial extent (au):  <R**2>=           3373.9781
 Charge=             -1.0000 electrons
 Dipole moment (field-independent basis, Debye):
    X=              0.0000    Y=              0.0000    Z=              0.0000  Tot=              0.0000
 Quadrupole moment (field-independent basis, Debye-Ang):
   XX=           -116.9385   YY=           -116.9385   ZZ=           -112.4731
   XY=              0.0000   XZ=              0.0000   YZ=              0.0000
 Traceless Quadrupole moment (field-independent basis, Debye-Ang):
   XX=             -1.4885   YY=             -1.4885   ZZ=              2.9769
   XY=              0.0000   XZ=              0.0000   YZ=              0.0000
 Octapole moment (field-independent basis, Debye-Ang**2):
  XXX=              0.0000  YYY=              0.0000  ZZZ=              0.0000  XYY=              0.0000
  XXY=              0.0000  XXZ=              0.0000  XZZ=              0.0000  YZZ=              0.0000
  YYZ=              0.0000  XYZ=              0.0000
 Hexadecapole moment (field-independent basis, Debye-Ang**3):
 XXXX=          -1468.1810 YYYY=          -1468.1810 ZZZZ=          -1619.5214 XXXY=              0.0000
 XXXZ=              0.0000 YYYX=              0.0000 YYYZ=            -75.0370 ZZZX=              0.0000
 ZZZY=              0.0000 XXYY=           -489.3937 XXZZ=           -539.2994 YYZZ=           -539.2994
 XXYZ=             75.0370 YYXZ=              0.0000 ZZXY=              0.0000
 N-N= 1.487393688851D+03 E-N=-1.768795748461D+04  KE= 5.538688884462D+03
 Symmetry AG   KE= 2.298977488705D+03
 Symmetry BG   KE= 4.726188854968D+02
 Symmetry AU   KE= 4.701717079217D+02
 Symmetry BU   KE= 2.296920802338D+03
                          Isotropic Fermi Contact Couplings
        Atom                 a.u.       MegaHertz       Gauss      10(-4) cm-1
     1  Ni(61)             0.01323      -5.29347      -1.88884      -1.76571
     2  Ni(61)             0.01323      -5.29347      -1.88884      -1.76571
     3  C(13)             -0.00610      -6.85472      -2.44594      -2.28649
     4  C(13)             -0.00610      -6.85472      -2.44594      -2.28649
     5  C(13)             -0.00610      -6.85472      -2.44594      -2.28649
     6  C(13)             -0.00610      -6.85472      -2.44594      -2.28649
     7  C(13)             -0.00610      -6.85472      -2.44594      -2.28649
     8  C(13)             -0.00610      -6.85472      -2.44594      -2.28649
     9  O(17)              0.00421      -2.55038      -0.91004      -0.85072
    10  O(17)              0.00421      -2.55038      -0.91004      -0.85072
    11  O(17)              0.00421      -2.55038      -0.91004      -0.85072
    12  O(17)              0.00421      -2.55038      -0.91004      -0.85072
    13  O(17)              0.00421      -2.55038      -0.91004      -0.85072
    14  O(17)              0.00421      -2.55038      -0.91004      -0.85072
 --------------------------------------------------------
       Center         ----  Spin Dipole Couplings  ----
                      3XX-RR        3YY-RR        3ZZ-RR
 --------------------------------------------------------
     1   Atom       -0.271467     -0.271467      0.542933
     2   Atom       -0.271467     -0.271467      0.542933
     3   Atom       -0.038951     -0.033921      0.072872
     4   Atom       -0.035179     -0.037693      0.072872
     5   Atom       -0.035179     -0.037693      0.072872
     6   Atom       -0.035179     -0.037693      0.072872
     7   Atom       -0.038951     -0.033921      0.072872
     8   Atom       -0.035179     -0.037693      0.072872
     9   Atom       -0.109994     -0.123239      0.233233
    10   Atom       -0.119927     -0.113305      0.233233
    11   Atom       -0.119927     -0.113305      0.233233
    12   Atom       -0.109994     -0.123239      0.233233
    13   Atom       -0.119927     -0.113305      0.233233
    14   Atom       -0.119927     -0.113305      0.233233
 --------------------------------------------------------
                        XY            XZ            YZ
 --------------------------------------------------------
     1   Atom        0.000000      0.000000      0.000000
     2   Atom        0.000000      0.000000      0.000000
     3   Atom        0.000000      0.000000     -0.028868
     4   Atom       -0.002178     -0.025000      0.014434
     5   Atom        0.002178      0.025000      0.014434
     6   Atom       -0.002178     -0.025000      0.014434
     7   Atom        0.000000      0.000000     -0.028868
     8   Atom        0.002178      0.025000      0.014434
     9   Atom        0.000000      0.000000     -0.055608
    10   Atom       -0.005735      0.048158      0.027804
    11   Atom        0.005735     -0.048158      0.027804
    12   Atom        0.000000      0.000000     -0.055608
    13   Atom       -0.005735      0.048158      0.027804
    14   Atom        0.005735     -0.048158      0.027804
 --------------------------------------------------------


 ---------------------------------------------------------------------------------
              Anisotropic Spin Dipole Couplings in Principal Axis System
 ---------------------------------------------------------------------------------

       Atom             a.u.   MegaHertz   Gauss  10(-4) cm-1        Axes

              Baa    -0.2715    12.966     4.627     4.325  1.0000  0.0000  0.0000
     1 Ni(61) Bbb    -0.2715    12.966     4.627     4.325  0.0000  1.0000  0.0000
              Bcc     0.5429   -25.932    -9.253    -8.650  0.0000  0.0000  1.0000
 
              Baa    -0.2715    12.966     4.627     4.325  1.0000  0.0002  0.0000
     2 Ni(61) Bbb    -0.2715    12.966     4.627     4.325 -0.0002  1.0000  0.0000
              Bcc     0.5429   -25.932    -9.253    -8.650  0.0000  0.0000  1.0000
 
              Baa    -0.0412    -5.532    -1.974    -1.845  0.0000  0.9695  0.2453
     3 C(13)  Bbb    -0.0390    -5.227    -1.865    -1.743  1.0000  0.0000  0.0000
              Bcc     0.0802    10.759     3.839     3.589  0.0000 -0.2453  0.9695
 
              Baa    -0.0412    -5.532    -1.974    -1.845  0.8396 -0.4847  0.2453
     4 C(13)  Bbb    -0.0390    -5.227    -1.865    -1.743  0.5000  0.8660  0.0000
              Bcc     0.0802    10.759     3.839     3.589 -0.2124  0.1226  0.9695
 
              Baa    -0.0412    -5.532    -1.974    -1.845  0.8396  0.4847 -0.2453
     5 C(13)  Bbb    -0.0390    -5.227    -1.865    -1.743 -0.5000  0.8660  0.0000
              Bcc     0.0802    10.759     3.839     3.589  0.2124  0.1226  0.9695
 
              Baa    -0.0412    -5.532    -1.974    -1.845  0.8396 -0.4847  0.2453
     6 C(13)  Bbb    -0.0390    -5.227    -1.865    -1.743  0.5000  0.8660  0.0000
              Bcc     0.0802    10.759     3.839     3.589 -0.2124  0.1226  0.9695
 
              Baa    -0.0412    -5.532    -1.974    -1.845  0.0000  0.9695  0.2453
     7 C(13)  Bbb    -0.0390    -5.227    -1.865    -1.743  1.0000  0.0000  0.0000
              Bcc     0.0802    10.759     3.839     3.589  0.0000 -0.2453  0.9695
 
              Baa    -0.0412    -5.532    -1.974    -1.845  0.8396  0.4847 -0.2453
     8 C(13)  Bbb    -0.0390    -5.227    -1.865    -1.743 -0.5000  0.8660  0.0000
              Bcc     0.0802    10.759     3.839     3.589  0.2124  0.1226  0.9695
 
              Baa    -0.1317     9.531     3.401     3.179  0.0000  0.9886  0.1506
     9 O(17)  Bbb    -0.1100     7.959     2.840     2.655  1.0000  0.0000  0.0000
              Bcc     0.2417   -17.490    -6.241    -5.834  0.0000 -0.1506  0.9886
 
              Baa    -0.1317     9.531     3.401     3.179  0.8561  0.4943 -0.1506
    10 O(17)  Bbb    -0.1100     7.959     2.840     2.655 -0.5000  0.8660  0.0000
              Bcc     0.2417   -17.490    -6.241    -5.834  0.1305  0.0753  0.9886
 
              Baa    -0.1317     9.531     3.401     3.179  0.8561 -0.4943  0.1506
    11 O(17)  Bbb    -0.1100     7.959     2.840     2.655  0.5000  0.8660  0.0000
              Bcc     0.2417   -17.490    -6.241    -5.834 -0.1305  0.0753  0.9886
 
              Baa    -0.1317     9.531     3.401     3.179  0.0000  0.9886  0.1506
    12 O(17)  Bbb    -0.1100     7.959     2.840     2.655  1.0000  0.0000  0.0000
              Bcc     0.2417   -17.490    -6.241    -5.834  0.0000 -0.1506  0.9886
 
              Baa    -0.1317     9.531     3.401     3.179  0.8561  0.4943 -0.1506
    13 O(17)  Bbb    -0.1100     7.959     2.840     2.655 -0.5000  0.8660  0.0000
              Bcc     0.2417   -17.490    -6.241    -5.834  0.1305  0.0753  0.9886
 
              Baa    -0.1317     9.531     3.401     3.179  0.8561 -0.4943  0.1506
    14 O(17)  Bbb    -0.1100     7.959     2.840     2.655  0.5000  0.8660  0.0000
              Bcc     0.2417   -17.490    -6.241    -5.834 -0.1305  0.0753  0.9886
 

 ---------------------------------------------------------------------------------

 Calling FoFJK, ICntrl=      2127 FMM=F ISym2X=0 I1Cent= 0 IOpClX= 1 NMat=1 NMatS=1 NMatT=0.
 ***** Axes restored to original set *****
 -------------------------------------------------------------------
 Center     Atomic                   Forces (Hartrees/Bohr)
 Number     Number              X              Y              Z
 -------------------------------------------------------------------
      1       28           0.000000000    0.000000863   -0.000001231
      2       28           0.000000000   -0.000000863    0.000001231
      3        6           0.000000000    0.000000775   -0.000000715
      4        6          -0.000001755    0.000000489    0.000001820
      5        6           0.000001755    0.000000489    0.000001820
      6        6           0.000001755   -0.000000489   -0.000001820
      7        6           0.000000000   -0.000000775    0.000000715
      8        6          -0.000001755   -0.000000489   -0.000001820
      9        8           0.000000000   -0.000002265   -0.000001195
     10        8           0.000001904    0.000000664   -0.000002119
     11        8           0.000001904   -0.000000664    0.000002119
     12        8           0.000000000    0.000002265    0.000001195
     13        8          -0.000001904   -0.000000664    0.000002119
     14        8          -0.000001904    0.000000664   -0.000002119
 -------------------------------------------------------------------
 Cartesian Forces:  Max     0.000002265 RMS     0.000001385

 GradGradGradGradGradGradGradGradGradGradGradGradGradGradGradGradGradGrad
 Berny optimization.
 Search for a local minimum.
 Step number   1 out of a maximum of   52
 All quantities printed in internal units (Hartrees-Bohrs-Radians)
 Second derivative matrix not updated -- first step.
     Eigenvalues ---    0.00033   0.00529   0.00548   0.00555   0.01027
     Eigenvalues ---    0.01028   0.02085   0.02090   0.02613   0.02644
     Eigenvalues ---    0.03338   0.07494   0.12013   0.12353   0.19433
     Eigenvalues ---    0.19599   0.20401   0.20722   0.21294   0.21514
     Eigenvalues ---    0.23116   0.23884   0.27353   0.27577   0.39715
     Eigenvalues ---    0.46108   0.56351   0.56389   0.63311   0.63510
     Eigenvalues ---    2.77187   2.77211   2.77978   2.77978   2.78719
     Eigenvalues ---    2.78719
 RFO step:  Lambda= 0.00000000D+00 EMin= 3.25222381D-04
 ClnCor:  largest displacement from symmetrization is 4.66D-05 for atom    14.
 Linear search not attempted -- first point.
 ClnCor:  largest displacement from symmetrization is 9.93D-16 for atom    10.
 TrRot=  0.000000  0.000000  0.000000  0.000000  0.000000  0.000000
 Variable       Old X    -DE/DX   Delta X   Delta X   Delta X     New X
                                 (Linear)    (Quad)   (Total)
    X1        0.00000   0.00000   0.00000   0.00000   0.00000   0.00000
    Y1        0.00000   0.00000   0.00000   0.00000   0.00000   0.00000
    Z1        2.68985   0.00000   0.00000  -0.00004  -0.00004   2.68981
    X2        0.00000   0.00000   0.00000   0.00000   0.00000   0.00000
    Y2        0.00000   0.00000   0.00000   0.00000   0.00000   0.00000
    Z2       -2.68985   0.00000   0.00000   0.00004   0.00004  -2.68981
    X3        0.00000   0.00000   0.00000   0.00000   0.00000   0.00000
    Y3        3.38172   0.00000   0.00000   0.00001   0.00001   3.38173
    Z3        2.99958   0.00000   0.00000  -0.00010  -0.00010   2.99948
    X4        2.92866   0.00000   0.00000   0.00001   0.00001   2.92867
    Y4       -1.69086   0.00000   0.00000   0.00000   0.00000  -1.69087
    Z4        2.99958   0.00000   0.00000  -0.00010  -0.00010   2.99948
    X5       -2.92866   0.00000   0.00000  -0.00001  -0.00001  -2.92867
    Y5       -1.69086   0.00000   0.00000   0.00000   0.00000  -1.69087
    Z5        2.99958   0.00000   0.00000  -0.00010  -0.00010   2.99948
    X6       -2.92866   0.00000   0.00000  -0.00001  -0.00001  -2.92867
    Y6        1.69086   0.00000   0.00000   0.00000   0.00000   1.69087
    Z6       -2.99958   0.00000   0.00000   0.00010   0.00010  -2.99948
    X7        0.00000   0.00000   0.00000   0.00000   0.00000   0.00000
    Y7       -3.38172   0.00000   0.00000  -0.00001  -0.00001  -3.38173
    Z7       -2.99958   0.00000   0.00000   0.00010   0.00010  -2.99948
    X8        2.92866   0.00000   0.00000   0.00001   0.00001   2.92867
    Y8        1.69086   0.00000   0.00000   0.00000   0.00000   1.69087
    Z8       -2.99958   0.00000   0.00000   0.00010   0.00010  -2.99948
    X9        0.00000   0.00000   0.00000   0.00000   0.00000   0.00000
    Y9        5.55038   0.00000   0.00000   0.00001   0.00001   5.55039
    Z9        3.21769   0.00000   0.00000  -0.00015  -0.00015   3.21755
   X10       -4.80677   0.00000   0.00000  -0.00001  -0.00001  -4.80678
   Y10       -2.77519   0.00000   0.00000  -0.00001  -0.00001  -2.77520
   Z10        3.21769   0.00000   0.00000  -0.00015  -0.00015   3.21755
   X11       -4.80677   0.00000   0.00000  -0.00001  -0.00001  -4.80678
   Y11        2.77519   0.00000   0.00000   0.00001   0.00001   2.77520
   Z11       -3.21769   0.00000   0.00000   0.00015   0.00015  -3.21755
   X12        0.00000   0.00000   0.00000   0.00000   0.00000   0.00000
   Y12       -5.55038   0.00000   0.00000  -0.00001  -0.00001  -5.55039
   Z12       -3.21769   0.00000   0.00000   0.00015   0.00015  -3.21755
   X13        4.80677   0.00000   0.00000   0.00001   0.00001   4.80678
   Y13        2.77519   0.00000   0.00000   0.00001   0.00001   2.77520
   Z13       -3.21769   0.00000   0.00000   0.00015   0.00015  -3.21755
   X14        4.80677   0.00000   0.00000   0.00001   0.00001   4.80678
   Y14       -2.77519   0.00000   0.00000  -0.00001  -0.00001  -2.77520
   Z14        3.21769   0.00000   0.00000  -0.00015  -0.00015   3.21755
         Item               Value     Threshold  Converged?
 Maximum Force            0.000002     0.000015     YES
 RMS     Force            0.000001     0.000010     YES
 Maximum Displacement     0.000146     0.000060     NO 
 RMS     Displacement     0.000068     0.000040     NO 
 Predicted change in Energy=-3.617821D-10
 GradGradGradGradGradGradGradGradGradGradGradGradGradGradGradGradGradGrad

                          Input orientation:                          
 ---------------------------------------------------------------------
 Center     Atomic      Atomic             Coordinates (Angstroms)
 Number     Number       Type             X           Y           Z
 ---------------------------------------------------------------------
      1         28           0        0.000000    0.000000    1.423387
      2         28           0        0.000000    0.000000   -1.423387
      3          6           0        0.000000    1.789535    1.587256
      4          6           0        1.549783   -0.894768    1.587256
      5          6           0       -1.549783   -0.894768    1.587256
      6          6           0       -1.549783    0.894768   -1.587256
      7          6           0        0.000000   -1.789535   -1.587256
      8          6           0        1.549783    0.894768   -1.587256
      9          8           0        0.000000    2.937141    1.702652
     10          8           0       -2.543639   -1.468570    1.702652
     11          8           0       -2.543638    1.468571   -1.702652
     12          8           0        0.000000   -2.937141   -1.702652
     13          8           0        2.543639    1.468570   -1.702652
     14          8           0        2.543638   -1.468571    1.702652
 ---------------------------------------------------------------------
                    Distance matrix (angstroms):
                    1          2          3          4          5
     1  Ni   0.000000
     2  Ni   2.846775   0.000000
     3  C    1.797022   3.502343   0.000000
     4  C    1.797022   3.502343   3.099566   0.000000
     5  C    1.797022   3.502343   3.099566   3.099566   0.000000
     6  C    3.502343   1.797022   3.644168   4.784064   3.644168
     7  C    3.502343   1.797022   4.784064   3.644168   3.644168
     8  C    3.502343   1.797022   3.644168   3.644168   4.784064
     9  O    2.950387   4.289396   1.153393   4.135053   4.135053
    10  O    2.950387   4.289396   4.135053   4.135053   1.153393
    11  O    4.289396   2.950387   4.170924   5.758902   4.170924
    12  O    4.289396   2.950387   5.758902   4.170924   4.170924
    13  O    4.289396   2.950387   4.170924   4.170924   5.758902
    14  O    2.950387   4.289396   4.135053   1.153393   4.135053
                    6          7          8          9         10
     6  C    0.000000
     7  C    3.099566   0.000000
     8  C    3.099566   3.099566   0.000000
     9  O    4.170924   5.758902   4.170924   0.000000
    10  O    4.170924   4.170924   5.758902   5.087277   0.000000
    11  O    1.153393   4.135053   4.135053   4.496986   4.496986
    12  O    4.135053   1.153393   4.135053   6.789939   4.496986
    13  O    4.135053   4.135053   1.153393   4.496986   6.789939
    14  O    5.758902   4.170924   4.170924   5.087277   5.087277
                   11         12         13         14
    11  O    0.000000
    12  O    5.087277   0.000000
    13  O    5.087277   5.087277   0.000000
    14  O    6.789939   4.496986   4.496986   0.000000
 Stoichiometry    C6Ni2O6(1-,2)
 Framework group  D3D[C3(Ni.Ni),3SGD(C2O2)]
 Deg. of freedom     5
 Full point group                 D3D     NOp  12
 Largest Abelian subgroup         C2H     NOp   4
 Largest concise Abelian subgroup C2H     NOp   4
                         Standard orientation:                         
 ---------------------------------------------------------------------
 Center     Atomic      Atomic             Coordinates (Angstroms)
 Number     Number       Type             X           Y           Z
 ---------------------------------------------------------------------
      1         28           0        0.000000    0.000000    1.423387
      2         28           0        0.000000    0.000000   -1.423387
      3          6           0        0.000000    1.789535    1.587256
      4          6           0        1.549783   -0.894768    1.587256
      5          6           0       -1.549783   -0.894768    1.587256
      6          6           0       -1.549783    0.894768   -1.587256
      7          6           0        0.000000   -1.789535   -1.587256
      8          6           0        1.549783    0.894768   -1.587256
      9          8           0        0.000000    2.937141    1.702652
     10          8           0       -2.543638   -1.468570    1.702652
     11          8           0       -2.543638    1.468570   -1.702652
     12          8           0        0.000000   -2.937141   -1.702652
     13          8           0        2.543638    1.468570   -1.702652
     14          8           0        2.543638   -1.468570    1.702652
 ---------------------------------------------------------------------
 Rotational constants (GHZ):      0.4774552      0.4130219      0.4130219
 Standard basis: 6-311+G(d) (5D, 7F)
 There are   116 symmetry adapted basis functions of AG  symmetry.
 There are    74 symmetry adapted basis functions of BG  symmetry.
 There are    74 symmetry adapted basis functions of AU  symmetry.
 There are   116 symmetry adapted basis functions of BU  symmetry.
 Integral buffers will be    262144 words long.
 Raffenetti 2 integral format.
 Two-electron integral symmetry is turned on.
   380 basis functions,   620 primitive gaussians,   406 cartesian basis functions
    71 alpha electrons       70 beta electrons
       nuclear repulsion energy      1487.4045990072 Hartrees.
 NAtoms=   14 NActive=   14 NUniq=    3 SFac= 3.00D+00 NAtFMM=   80 NAOKFM=F Big=F
 One-electron integrals computed using PRISM.
 NBasis=   380 RedAO= T  NBF=   116    74    74   116
 NBsUse=   380 1.00D-06 NBFU=   116    74    74   116
 Initial guess read from the read-write file.
 B after Tr=     0.000000    0.000000    0.000000
         Rot=    1.000000    0.000000    0.000000    0.000000 Ang=   0.00 deg.
 Initial guess orbital symmetries:
 Alpha Orbitals:
       Occupied  (A2U) (A1G) (A2U) (A1G) (EG) (EG) (EU) (EU) (A2U)
                 (A1G) (EU) (EU) (EG) (EG) (A2U) (A1G) (A1G) (EU)
                 (EU) (EG) (EG) (A2U) (A1G) (A2U) (EU) (EU) (EG)
                 (EG) (A1G) (A2U) (A1G) (EU) (EU) (A2U) (EG) (EG)
                 (A1G) (A2U) (EU) (EU) (EG) (EG) (A1G) (A2U) (A1G)
                 (EU) (EU) (EG) (EG) (EU) (EU) (EG) (EG) (A2U)
                 (A1U) (A2G) (EU) (EU) (EG) (EG) (EU) (EU) (A1G)
                 (EG) (EG) (EU) (EU) (EG) (EG) (A2U) (A1G)
       Virtual   (A2U) (A1G) (A2U) (EG) (EG) (EU) (EU) (A1U) (EU)
                 (EU) (A2G) (EG) (EG) (EU) (EU) (EG) (EG) (A1G)
                 (EG) (EG) (A1G) (A2U) (EU) (EU) (A2U) (EU) (EU)
                 (A1U) (A2U) (A1G) (EG) (EG) (A2G) (EU) (EU) (EG)
                 (EG) (A1G) (A2U) (A1G) (EG) (EG) (A2U) (EU) (EU)
                 (EG) (EG) (EG) (EG) (EU) (EU) (EU) (EU) (A1G)
                 (A1G) (A2U) (EU) (EU) (EG) (EG) (A2U) (A1G) (A2G)
                 (A1G) (A1U) (A2U) (A2U) (EG) (EG) (EU) (EU) (A1G)
                 (A2U) (EG) (EG) (EU) (EU) (EU) (EU) (EG) (EG)
                 (A1G) (EG) (EG) (EU) (EU) (A1G) (A2U) (EU) (EU)
                 (A1U) (EG) (EG) (A2G) (A2U) (EG) (EG) (EU) (EU)
                 (A2U) (A1G) (EG) (EG) (EU) (EU) (A1G) (A2U) (EG)
                 (EG) (EU) (EU) (EG) (EG) (EU) (EU) (A2U) (A1G)
                 (EG) (EG) (EU) (EU) (EG) (EG) (EU) (EU) (A1G)
                 (A1U) (EU) (EU) (A2G) (A2U) (EG) (EG) (A2U) (A1G)
                 (A2G) (A1U) (EU) (EU) (EG) (EG) (EU) (EU) (A1U)
                 (A2G) (EG) (EG) (A1G) (A1G) (A2U) (EG) (EG) (EU)
                 (EU) (A2U) (EG) (EG) (EU) (EU) (A1G) (EU) (EU)
                 (A2U) (EG) (EG) (A2U) (A1G) (EG) (EG) (EU) (EU)
                 (EG) (EG) (EU) (EU) (A1G) (EU) (EU) (EG) (EG)
                 (A2U) (A2U) (A1G) (A1U) (A2G) (EU) (EU) (A1G)
                 (EG) (EG) (EG) (EG) (EU) (EU) (A1U) (A2G) (EU)
                 (EU) (A2U) (EG) (EG) (A1G) (EU) (EU) (EG) (EG)
                 (A2U) (EU) (EU) (EG) (EG) (A1G) (A2U) (EU) (EU)
                 (EG) (EG) (A1U) (A2G) (A1G) (EU) (EU) (EG) (EG)
                 (A2U) (EU) (EU) (EG) (EG) (A1G) (A2U) (EG) (EG)
                 (EU) (EU) (A1G) (A2U) (A1U) (A2G) (EU) (EU) (EG)
                 (EG) (EU) (EU) (EG) (EG) (A2U) (A1G) (A1G) (A2U)
                 (A1G) (EG) (EG) (EU) (EU) (A1U) (A2G) (EG) (EG)
                 (EU) (EU) (A2U) (EG) (EG) (EU) (EU) (A2U) (A1G)
                 (EG) (EG) (EU) (EU) (A2U) (A1G) (EU) (EU) (EG)
                 (EG) (A1G) (A2U) (EU) (EU) (EG) (EG) (A2U) (A1G)
                 (EU) (EU) (EG) (EG) (A1G) (A2U) (A1G) (A2U) (EU)
                 (EU) (EG) (EG) (A1G) (A2U) (EG) (EG) (EU) (EU)
                 (A1G) (A2U) (A1G) (A2U)
 Beta  Orbitals:
       Occupied  (A2U) (A1G) (A2U) (A1G) (EG) (EG) (EU) (EU) (A2U)
                 (A1G) (EU) (EU) (EG) (EG) (A2U) (A1G) (A1G) (EU)
                 (EU) (EG) (EG) (A2U) (A1G) (A2U) (EU) (EU) (EG)
                 (EG) (A1G) (A2U) (A1G) (EU) (EU) (A2U) (EG) (EG)
                 (A1G) (A2U) (EU) (EU) (EG) (EG) (A1G) (A2U) (EG)
                 (EG) (EU) (EU) (A1G) (EU) (EU) (A1U) (A2G) (EG)
                 (EG) (A2U) (EU) (EU) (EG) (EG) (EU) (EU) (A1G)
                 (EG) (EG) (EU) (EU) (EG) (EG) (A2U)
       Virtual   (A1G) (A2U) (A1G) (A2U) (EG) (EG) (EU) (EU) (A1U)
                 (EU) (EU) (A2G) (EU) (EU) (EG) (EG) (EG) (EG)
                 (A1G) (EG) (EG) (A1G) (A2U) (EU) (EU) (A2U) (EU)
                 (EU) (A1U) (A1G) (A2U) (EG) (EG) (A2G) (EU) (EU)
                 (EG) (EG) (A1G) (A2U) (A1G) (EG) (EG) (A2U) (EU)
                 (EU) (EG) (EG) (EG) (EG) (EU) (EU) (EU) (EU) (A1G)
                 (A1G) (A2U) (EU) (EU) (EG) (EG) (A2U) (A1G) (A2G)
                 (A1U) (A1G) (A2U) (A2U) (EG) (EG) (A1G) (EU) (EU)
                 (A2U) (EG) (EG) (EU) (EU) (EU) (EU) (EG) (EG)
                 (A1G) (EG) (EG) (EU) (EU) (A1G) (A2U) (EU) (EU)
                 (A1U) (EG) (EG) (A2G) (A2U) (EG) (EG) (EU) (EU)
                 (A2U) (A1G) (EG) (EG) (EU) (EU) (A1G) (A2U) (EG)
                 (EG) (EU) (EU) (EG) (EG) (EU) (EU) (A2U) (EG)
                 (EG) (A1G) (EU) (EU) (EU) (EU) (EG) (EG) (A1G)
                 (A1U) (EU) (EU) (A2G) (A2U) (EG) (EG) (A2U) (A1G)
                 (A2G) (A1U) (EU) (EU) (EG) (EG) (A1U) (A2G) (EU)
                 (EU) (EG) (EG) (A1G) (A1G) (A2U) (EG) (EG) (EU)
                 (EU) (A2U) (EG) (EG) (EU) (EU) (A1G) (EU) (EU)
                 (A2U) (EG) (EG) (A2U) (A1G) (EG) (EG) (EU) (EU)
                 (EG) (EG) (EU) (EU) (A1G) (EU) (EU) (EG) (EG)
                 (A2U) (A2U) (A1G) (A1U) (A2G) (EU) (EU) (A1G)
                 (EG) (EG) (EG) (EG) (EU) (EU) (A1U) (A2G) (EU)
                 (EU) (A2U) (EG) (EG) (A1G) (EU) (EU) (EG) (EG)
                 (A2U) (EU) (EU) (EG) (EG) (A1G) (A2U) (EU) (EU)
                 (EG) (EG) (A1U) (A2G) (A1G) (EU) (EU) (EG) (EG)
                 (A2U) (EU) (EU) (EG) (EG) (A1G) (A2U) (EG) (EG)
                 (EU) (EU) (A1G) (A2U) (A1U) (A2G) (EU) (EU) (EG)
                 (EG) (EU) (EU) (EG) (EG) (A2U) (A1G) (A1G) (A2U)
                 (A1G) (A1U) (EG) (EG) (EU) (EU) (A2G) (EG) (EG)
                 (EU) (EU) (A2U) (EG) (EG) (EU) (EU) (A2U) (A1G)
                 (EG) (EG) (EU) (EU) (A2U) (A1G) (EU) (EU) (EG)
                 (EG) (A1G) (A2U) (EU) (EU) (EG) (EG) (A2U) (A1G)
                 (EU) (EU) (EG) (EG) (A1G) (A2U) (A1G) (A2U) (EU)
                 (EU) (EG) (EG) (A1G) (A2U) (EG) (EG) (EU) (EU)
                 (A1G) (A2U) (A1G) (A2U)
 Initial guess <Sx>= 0.0000 <Sy>= 0.0000 <Sz>= 0.5000 <S**2>= 0.7616 S= 0.5058
 Requested convergence on RMS density matrix=1.00D-08 within  80 cycles.
 Requested convergence on MAX density matrix=1.00D-06.
 Requested convergence on             energy=1.00D-06.
 No special actions if energy rises.
 SCF Done:  E(UB3LYP) =  -3697.00064174     A.U. after    5 cycles
             Convg  =    0.5028D-08             -V/T =  2.0013
 <Sx>= 0.0000 <Sy>= 0.0000 <Sz>= 0.5000 <S**2>= 0.7616 S= 0.5058
 <L.S>= 0.000000000000E+00
 Annihilation of the first spin contaminant:
 S**2 before annihilation     0.7616,   after     0.7501
 QCSCF skips out because SCF is already converged.
 Calling FoFJK, ICntrl=      2127 FMM=F ISym2X=0 I1Cent= 0 IOpClX= 1 NMat=1 NMatS=1 NMatT=0.
 ***** Axes restored to original set *****
 -------------------------------------------------------------------
 Center     Atomic                   Forces (Hartrees/Bohr)
 Number     Number              X              Y              Z
 -------------------------------------------------------------------
      1       28           0.000000000    0.000000863   -0.000002301
      2       28           0.000000000   -0.000000863    0.000002301
      3        6           0.000000000   -0.000002368    0.000000383
      4        6          -0.000004479    0.000002060    0.000002918
      5        6           0.000004479    0.000002060    0.000002918
      6        6           0.000004479   -0.000002060   -0.000002918
      7        6           0.000000000    0.000002368   -0.000000383
      8        6          -0.000004479   -0.000002060   -0.000002918
      9        8           0.000000000   -0.000000077   -0.000001280
     10        8           0.000000009   -0.000000430   -0.000002205
     11        8           0.000000009    0.000000430    0.000002205
     12        8           0.000000000    0.000000077    0.000001280
     13        8          -0.000000009    0.000000430    0.000002205
     14        8          -0.000000009   -0.000000430   -0.000002205
 -------------------------------------------------------------------
 Cartesian Forces:  Max     0.000004479 RMS     0.000002060

 GradGradGradGradGradGradGradGradGradGradGradGradGradGradGradGradGradGrad
 Berny optimization.
 Search for a local minimum.
 Step number   2 out of a maximum of   52
 All quantities printed in internal units (Hartrees-Bohrs-Radians)
 Update second derivatives using D2CorN and points    1
 DE=  1.76D-10 DEPred=-3.62D-10 R=-4.88D-01
 Trust test=-4.88D-01 RLast= 4.37D-04 DXMaxT set to 5.00D-02
     Eigenvalues ---    0.00033   0.00529   0.00548   0.00555   0.01027
     Eigenvalues ---    0.01028   0.02085   0.02090   0.02613   0.02644
     Eigenvalues ---    0.03338   0.07494   0.12013   0.12353   0.19433
     Eigenvalues ---    0.19599   0.20401   0.20722   0.21294   0.21514
     Eigenvalues ---    0.23116   0.23884   0.27353   0.27577   0.39715
     Eigenvalues ---    0.46108   0.56351   0.56389   0.63310   0.63510
     Eigenvalues ---    2.77187   2.77211   2.77978   2.77978   2.78719
     Eigenvalues ---    2.78719
 RFO step:  Lambda= 0.00000000D+00 EMin= 3.25222381D-04
 ClnCor:  largest displacement from symmetrization is 4.59D-05 for atom    14.
 Quartic linear search produced a step of -0.79806.
 ClnCor:  largest displacement from symmetrization is 2.66D-15 for atom    10.
 TrRot=  0.000000  0.000000  0.000000  0.000000  0.000000  0.000000
 Variable       Old X    -DE/DX   Delta X   Delta X   Delta X     New X
                                 (Linear)    (Quad)   (Total)
    X1        0.00000   0.00000   0.00000   0.00000   0.00000   0.00000
    Y1        0.00000   0.00000   0.00000   0.00000   0.00000   0.00000
    Z1        2.68981   0.00000   0.00003   0.00000   0.00003   2.68984
    X2        0.00000   0.00000   0.00000   0.00000   0.00000   0.00000
    Y2        0.00000   0.00000   0.00000   0.00000   0.00000   0.00000
    Z2       -2.68981   0.00000  -0.00003   0.00000  -0.00003  -2.68984
    X3        0.00000   0.00000   0.00000   0.00000   0.00000   0.00000
    Y3        3.38173   0.00000  -0.00001   0.00000   0.00000   3.38173
    Z3        2.99948   0.00000   0.00008  -0.00001   0.00007   2.99955
    X4        2.92867   0.00000  -0.00001   0.00000   0.00000   2.92866
    Y4       -1.69087   0.00000   0.00000   0.00000   0.00000  -1.69086
    Z4        2.99948   0.00000   0.00008  -0.00001   0.00007   2.99955
    X5       -2.92867   0.00000   0.00001   0.00000   0.00000  -2.92866
    Y5       -1.69087   0.00000   0.00000   0.00000   0.00000  -1.69086
    Z5        2.99948   0.00000   0.00008  -0.00001   0.00007   2.99955
    X6       -2.92867   0.00000   0.00001   0.00000   0.00000  -2.92866
    Y6        1.69087   0.00000   0.00000   0.00000   0.00000   1.69086
    Z6       -2.99948   0.00000  -0.00008   0.00001  -0.00007  -2.99955
    X7        0.00000   0.00000   0.00000   0.00000   0.00000   0.00000
    Y7       -3.38173   0.00000   0.00001   0.00000   0.00000  -3.38173
    Z7       -2.99948   0.00000  -0.00008   0.00001  -0.00007  -2.99955
    X8        2.92867   0.00000  -0.00001   0.00000   0.00000   2.92866
    Y8        1.69087   0.00000   0.00000   0.00000   0.00000   1.69086
    Z8       -2.99948   0.00000  -0.00008   0.00001  -0.00007  -2.99955
    X9        0.00000   0.00000   0.00000   0.00000   0.00000   0.00000
    Y9        5.55039   0.00000  -0.00001   0.00000  -0.00001   5.55039
    Z9        3.21755   0.00000   0.00012  -0.00002   0.00010   3.21764
   X10       -4.80678   0.00000   0.00001   0.00000   0.00001  -4.80677
   Y10       -2.77520   0.00000   0.00001   0.00000   0.00000  -2.77519
   Z10        3.21755   0.00000   0.00012  -0.00002   0.00010   3.21764
   X11       -4.80678   0.00000   0.00001   0.00000   0.00001  -4.80677
   Y11        2.77520   0.00000  -0.00001   0.00000   0.00000   2.77519
   Z11       -3.21755   0.00000  -0.00012   0.00002  -0.00010  -3.21764
   X12        0.00000   0.00000   0.00000   0.00000   0.00000   0.00000
   Y12       -5.55039   0.00000   0.00001   0.00000   0.00001  -5.55039
   Z12       -3.21755   0.00000  -0.00012   0.00002  -0.00010  -3.21764
   X13        4.80678   0.00000  -0.00001   0.00000  -0.00001   4.80677
   Y13        2.77520   0.00000  -0.00001   0.00000   0.00000   2.77519
   Z13       -3.21755   0.00000  -0.00012   0.00002  -0.00010  -3.21764
   X14        4.80678   0.00000  -0.00001   0.00000  -0.00001   4.80677
   Y14       -2.77520   0.00000   0.00001   0.00000   0.00000  -2.77519
   Z14        3.21755   0.00000   0.00012  -0.00002   0.00010   3.21764
         Item               Value     Threshold  Converged?
 Maximum Force            0.000004     0.000015     YES
 RMS     Force            0.000002     0.000010     YES
 Maximum Displacement     0.000099     0.000060     NO 
 RMS     Displacement     0.000046     0.000040     NO 
 Predicted change in Energy=-6.017945D-10
 GradGradGradGradGradGradGradGradGradGradGradGradGradGradGradGradGradGrad

                          Input orientation:                          
 ---------------------------------------------------------------------
 Center     Atomic      Atomic             Coordinates (Angstroms)
 Number     Number       Type             X           Y           Z
 ---------------------------------------------------------------------
      1         28           0        0.000000    0.000000    1.423404
      2         28           0        0.000000    0.000000   -1.423404
      3          6           0        0.000000    1.789534    1.587292
      4          6           0        1.549782   -0.894767    1.587292
      5          6           0       -1.549782   -0.894767    1.587292
      6          6           0       -1.549782    0.894767   -1.587292
      7          6           0        0.000000   -1.789534   -1.587292
      8          6           0        1.549782    0.894767   -1.587292
      9          8           0        0.000000    2.937137    1.702704
     10          8           0       -2.543636   -1.468569    1.702704
     11          8           0       -2.543636    1.468569   -1.702704
     12          8           0        0.000000   -2.937137   -1.702704
     13          8           0        2.543636    1.468569   -1.702704
     14          8           0        2.543636   -1.468569    1.702704
 ---------------------------------------------------------------------
                    Distance matrix (angstroms):
                    1          2          3          4          5
     1  Ni   0.000000
     2  Ni   2.846808   0.000000
     3  C    1.797023   3.502388   0.000000
[...]
 Vib (V=0)   25  0.111371D+01          0.046772          0.107697
 Vib (V=0)   26  0.111370D+01          0.046769          0.107689
 Vib (V=0)   27  0.109536D+01          0.039557          0.091083
 Vib (V=0)   28  0.109535D+01          0.039553          0.091074
 Vib (V=0)   29  0.109510D+01          0.039453          0.090843
 Vib (V=0)   30  0.109509D+01          0.039450          0.090836
 Electronic      0.200000D+01          0.301030          0.693147
 Translational   0.187960D+09          8.274066         19.051741
 Rotational      0.506852D+06          5.704882         13.135975
 ***** Axes restored to original set *****
 -------------------------------------------------------------------
 Center     Atomic                   Forces (Hartrees/Bohr)
 Number     Number              X              Y              Z
 -------------------------------------------------------------------
      1       28           0.000000000    0.000000863   -0.000002183
      2       28           0.000000000   -0.000000863    0.000002183
      3        6           0.000000000   -0.000002398    0.000000127
      4        6          -0.000004504    0.000002075    0.000002662
      5        6           0.000004504    0.000002075    0.000002662
      6        6           0.000004504   -0.000002075   -0.000002662
      7        6           0.000000000    0.000002398   -0.000000127
      8        6          -0.000004504   -0.000002075   -0.000002662
      9        8           0.000000000    0.000000028   -0.000001218
     10        8          -0.000000083   -0.000000483   -0.000002143
     11        8          -0.000000083    0.000000483    0.000002143
     12        8           0.000000000   -0.000000028    0.000001218
     13        8           0.000000083    0.000000483    0.000002143
     14        8           0.000000083   -0.000000483   -0.000002143
 -------------------------------------------------------------------
 Cartesian Forces:  Max     0.000004504 RMS     0.000002021

 GradGradGradGradGradGradGradGradGradGradGradGradGradGradGradGradGradGrad
 Berny optimization.
 Search for a local minimum.
 Step number   1 out of a maximum of    2
 All quantities printed in internal units (Hartrees-Bohrs-Radians)
 Second derivative matrix not updated -- analytic derivatives used.
     Eigenvalues ---    0.00012   0.00037   0.00037   0.00071   0.00071
     Eigenvalues ---    0.00159   0.00287   0.00287   0.00299   0.00299
     Eigenvalues ---    0.00475   0.01866   0.04637   0.04650   0.05130
     Eigenvalues ---    0.05131   0.05940   0.05941   0.09427   0.09480
     Eigenvalues ---    0.12008   0.12010   0.12059   0.12061   0.12425
     Eigenvalues ---    0.14631   0.26785   0.26789   0.27518   0.27523
     Eigenvalues ---    2.02852   2.02858   2.05667   2.06747   2.06753
     Eigenvalues ---    2.24594
 Angle between quadratic step and forces=  74.75 degrees.
 ClnCor:  largest displacement from symmetrization is 4.15D-04 for atom    10.
 Linear search not attempted -- first point.
 ClnCor:  largest displacement from symmetrization is 1.99D-15 for atom    13.
 TrRot=  0.000000  0.000000  0.000000  0.000000  0.000000  0.000000
 Variable       Old X    -DE/DX   Delta X   Delta X   Delta X     New X
                                 (Linear)    (Quad)   (Total)
    X1        0.00000   0.00000   0.00000   0.00000   0.00000   0.00000
    Y1        0.00000   0.00000   0.00000   0.00000   0.00000   0.00000
    Z1        2.68983   0.00000   0.00000  -0.00007  -0.00007   2.68976
    X2        0.00000   0.00000   0.00000   0.00000   0.00000   0.00000
    Y2        0.00000   0.00000   0.00000   0.00000   0.00000   0.00000
    Z2       -2.68983   0.00000   0.00000   0.00007   0.00007  -2.68976
    X3        0.00000   0.00000   0.00000   0.00000   0.00000   0.00000
    Y3        3.38173   0.00000   0.00000   0.00019   0.00019   3.38192
    Z3        2.99950   0.00000   0.00000  -0.00015  -0.00015   2.99936
    X4        2.92867   0.00000   0.00000   0.00016   0.00016   2.92883
    Y4       -1.69087   0.00000   0.00000  -0.00009  -0.00009  -1.69096
    Z4        2.99950   0.00000   0.00000  -0.00015  -0.00015   2.99936
    X5       -2.92867   0.00000   0.00000  -0.00016  -0.00016  -2.92883
    Y5       -1.69087   0.00000   0.00000  -0.00009  -0.00009  -1.69096
    Z5        2.99950   0.00000   0.00000  -0.00015  -0.00015   2.99936
    X6       -2.92867   0.00000   0.00000  -0.00016  -0.00016  -2.92883
    Y6        1.69087   0.00000   0.00000   0.00009   0.00009   1.69096
    Z6       -2.99950   0.00000   0.00000   0.00015   0.00015  -2.99936
    X7        0.00000   0.00000   0.00000   0.00000   0.00000   0.00000
    Y7       -3.38173   0.00000   0.00000  -0.00019  -0.00019  -3.38192
    Z7       -2.99950   0.00000   0.00000   0.00015   0.00015  -2.99936
    X8        2.92867   0.00000   0.00000   0.00016   0.00016   2.92883
    Y8        1.69087   0.00000   0.00000   0.00009   0.00009   1.69096
    Z8       -2.99950   0.00000   0.00000   0.00015   0.00015  -2.99936
    X9        0.00000   0.00000   0.00000   0.00000   0.00000   0.00000
    Y9        5.55039   0.00000   0.00000   0.00021   0.00021   5.55060
    Z9        3.21757   0.00000   0.00000  -0.00032  -0.00032   3.21725
   X10       -4.80678   0.00000   0.00000  -0.00018  -0.00018  -4.80696
   Y10       -2.77520   0.00000   0.00000  -0.00010  -0.00010  -2.77530
   Z10        3.21757   0.00000   0.00000  -0.00032  -0.00032   3.21725
   X11       -4.80678   0.00000   0.00000  -0.00018  -0.00018  -4.80696
   Y11        2.77520   0.00000   0.00000   0.00010   0.00010   2.77530
   Z11       -3.21757   0.00000   0.00000   0.00032   0.00032  -3.21725
   X12        0.00000   0.00000   0.00000   0.00000   0.00000   0.00000
   Y12       -5.55039   0.00000   0.00000  -0.00021  -0.00021  -5.55060
   Z12       -3.21757   0.00000   0.00000   0.00032   0.00032  -3.21725
   X13        4.80678   0.00000   0.00000   0.00018   0.00018   4.80696
   Y13        2.77520   0.00000   0.00000   0.00010   0.00010   2.77530
   Z13       -3.21757   0.00000   0.00000   0.00032   0.00032  -3.21725
   X14        4.80678   0.00000   0.00000   0.00018   0.00018   4.80696
   Y14       -2.77520   0.00000   0.00000  -0.00010  -0.00010  -2.77530
   Z14        3.21757   0.00000   0.00000  -0.00032  -0.00032   3.21725
         Item               Value     Threshold  Converged?
 Maximum Force            0.000005     0.000015     YES
 RMS     Force            0.000002     0.000010     YES
 Maximum Displacement     0.000318     0.000060     NO 
 RMS     Displacement     0.000170     0.000040     NO 
 Predicted change in Energy=-2.127562D-08
 GradGradGradGradGradGradGradGradGradGradGradGradGradGradGradGradGradGrad


 Test job not archived.
 1|1|UNPC-123-PC|Freq|UB3LYP|6-311+G(d)|C6Ni2O6(1-,2)|123|20-Oct-2016|0
 ||#N Geom=AllCheck Guess=TCheck SCRF=Check Test GenChk UB3LYP/6-311+G(
 d) Freq||from Ni2CO6-_33_D3d_2th_2||-1,2|Ni,0.,0.,1.4233945677|Ni,0.,0
 .,-1.4233945677|C,0.0000001041,1.7895354048,1.5872672773|C,1.549783069
 5,-0.8947677926,1.5872672773|C,-1.5497831736,-0.8947676123,1.587267277
 3|C,-1.5497830695,0.8947677926,-1.5872672773|C,-0.0000001041,-1.789535
 4048,-1.5872672773|C,1.5497831736,0.8947676123,-1.5872672773|O,0.00000
 01708,2.9371404624,1.7026655692|O,-2.5436383404,-1.4685700833,1.702665
 5692|O,-2.5436381695,1.4685703792,-1.7026655692|O,-0.0000001708,-2.937
 1404624,-1.7026655692|O,2.5436383404,1.4685700833,-1.7026655692|O,2.54
 36381695,-1.4685703792,1.7026655692||Version=IA32W-G09RevA.02|State=2-
 A1G|HF=-3697.0006417|S2=0.761558|S2-1=0.|S2A=0.750123|RMSD=6.891e-009|
 RMSF=2.021e-006|ZeroPoint=0.0462172|Thermal=0.064339|Dipole=0.,0.,0.|D
 ipoleDeriv=-1.2668042,0.,0.,0.,-1.2668315,-0.0000123,0.,0.0000214,-0.6
 064045,-1.2668042,0.,0.,0.,-1.2668314,-0.0000123,0.,0.0000214,-0.60640
 45,0.2705296,0.0000001,0.,0.0000001,2.8284244,1.4630118,0.,0.2505501,0
 .3067953,2.1889932,-1.1076339,1.2669928,-1.1076041,0.9100607,-0.731484
 3,0.2170135,-0.1252764,0.3067615,2.1889935,1.1076338,-1.2669929,1.1076
 04,0.9100605,-0.7314841,-0.2170135,-0.1252763,0.3067615,2.1889932,-1.1
 07634,1.2669928,-1.1076041,0.9100607,-0.7314843,0.2170134,-0.1252764,0
 .3067614,0.2705296,0.0000002,0.,0.0000001,2.8284244,1.4630118,0.,0.250
 5501,0.3067952,2.1889935,1.1076338,-1.2669928,1.107604,0.9100604,-0.73
 14841,-0.2170134,-0.1252763,0.3067615,-0.1923025,-0.0000001,0.,-0.0000
 001,-2.3954792,-1.2159112,0.,-0.2207679,-0.2713081,-1.8447049,-0.95402
 35,1.0529969,-0.9540181,-0.7431174,0.60794,0.1911748,0.1103745,-0.2713
 028,-1.8447047,0.9540236,-1.0529968,0.9540182,-0.7431176,0.6079401,-0.
 1911748,0.1103745,-0.2713028,-0.1923025,-0.0000001,0.,-0.0000001,-2.39
 54792,-1.2159112,0.,-0.2207679,-0.2713081,-1.8447049,-0.9540234,1.0529
 969,-0.9540181,-0.7431174,0.60794,0.1911748,0.1103745,-0.2713028,-1.84
 47046,0.9540236,-1.0529968,0.9540182,-0.7431176,0.6079401,-0.1911748,0
 .1103745,-0.2713028|Polar=180.3560364,0.0000001,180.3554086,0.,-0.0040
 386,212.3704033|PG=D03D [C3(Ni1.Ni1),3SGD(C2O2)]|NImag=0||0.22413492,0
 .,0.22416584,0.,0.00000900,0.07189210,0.00229964,0.,0.,0.22413492,0.,0
 .00230024,-0.00000493,0.,0.22416584,0.,-0.00000493,-0.01013769,0.,0.00
 000900,0.07189210,-0.02357692,0.,0.,-0.00059136,0.,0.,0.07390884,0.,-0
 .08751524,-0.00545637,0.,-0.00516464,0.00554791,0.00000006,1.11666327,
 0.,-0.00821954,-0.03388452,0.,-0.00103484,0.00052893,0.,0.10155960,0.0
 6062982,-0.07148789,0.02767025,-0.00472700,-0.00402176,0.00198036,0.00
 480618,-0.00950390,0.01352970,-0.00044798,0.85592308,0.02767180,-0.039
 53479,0.00272650,0.00198003,-0.00173462,-0.00277429,0.02854062,-0.0337
 8834,0.00226603,-0.45150422,0.33455521,-0.00711583,0.00410665,-0.03384
 999,-0.00089874,0.00051892,0.00052821,0.00174466,-0.00152592,0.0078687
 7,0.08794672,-0.05076673,0.06060490,-0.07148790,-0.02767025,0.00472700
 ,-0.00402176,-0.00198036,-0.00480618,-0.00950390,-0.01352971,0.0004479
 8,-0.04594318,-0.00750493,0.00219449,0.85592318,-0.02767180,-0.0395347
 8,0.00272650,-0.00198002,-0.00173462,-0.00277429,-0.02854062,-0.033788
 34,0.00226603,0.00750493,0.00263719,-0.00075496,0.45150416,0.33455510,
 0.00711583,0.00410665,-0.03384999,0.00089874,0.00051892,0.00052821,-0.
 00174466,-0.00152592,0.00786877,-0.00219448,-0.00075496,0.00785873,-0.
 08794673,-0.05076672,0.06060490,-0.00402176,0.00198035,0.00480619,-0.0
 7148790,0.02767026,-0.00472700,0.00170521,-0.01910054,-0.00288551,-0.0
 0757779,0.00446252,-0.00099758,0.01903842,0.00909385,-0.00307290,0.855
 92309,0.00198002,-0.00173462,-0.00277429,0.02767180,-0.03953479,0.0027
 2650,-0.00091297,0.01326129,0.00188331,0.00446252,-0.00242514,0.000575
 98,-0.00909385,-0.00406984,0.00156188,-0.45150422,0.33455521,-0.000898
 74,0.00051892,0.00052821,-0.00711583,0.00410665,-0.03384999,0.00018291
 ,-0.00344291,-0.00329325,-0.00099758,0.00057598,0.00107896,0.00307290,
 0.00156187,-0.00329560,0.08794672,-0.05076673,0.06060490,-0.00059136,0
 .,0.,-0.02357692,0.,0.,0.00015140,0.,0.,0.00170522,-0.00091297,0.00018
 291,0.00170522,0.00091297,-0.00018291,-0.00950390,0.02854062,0.0017446
 6,0.07390884,0.,-0.00516464,0.00554791,0.,-0.08751524,-0.00545637,0.,-
 0.01015583,-0.00115273,-0.01910055,0.01326129,-0.00344291,0.01910054,0
 .01326129,-0.00344291,0.01352970,-0.03378834,-0.00152592,0.00000006,1.
 11666327,0.,-0.00103484,0.00052893,0.,-0.00821954,-0.03388452,0.,-0.00
 115272,0.00107828,-0.00288551,0.00188331,-0.00329325,0.00288551,0.0018
 8331,-0.00329325,-0.00044798,0.00226603,0.00786877,0.,0.10155960,0.060
 62982,-0.00402176,-0.00198036,-0.00480618,-0.07148790,-0.02767025,0.00
 472701,0.00170522,0.01910054,0.00288551,0.01903842,-0.00909385,0.00307
 289,-0.00757779,-0.00446252,0.00099758,-0.04594319,-0.00750493,0.00219
 449,-0.00950390,-0.01352970,0.00044798,0.85592319,-0.00198003,-0.00173
 462,-0.00277428,-0.02767180,-0.03953478,0.00272650,0.00091297,0.013261
 29,0.00188331,0.00909385,-0.00406984,0.00156187,-0.00446252,-0.0024251
 4,0.00057598,0.00750493,0.00263719,-0.00075496,-0.02854062,-0.03378834
 ,0.00226603,0.45150416,0.33455510,0.00089874,0.00051892,0.00052821,0.0
 0711583,0.00410665,-0.03384999,-0.00018291,-0.00344291,-0.00329325,-0.
 00307290,0.00156188,-0.00329560,0.00099758,0.00057598,0.00107896,-0.00
 219448,-0.00075496,0.00785873,-0.00174466,-0.00152592,0.00786877,-0.08
 794673,-0.05076672,0.06060490,0.00771657,0.,0.,0.00030975,0.,0.,-0.032
 72328,-0.00000006,0.,0.00454673,-0.00960274,-0.00058023,0.00454673,0.0
 0960274,0.00058023,-0.00077311,0.00039151,-0.00015467,-0.00004190,0.,0
 .,-0.00077311,-0.00039151,0.00015467,0.01633356,0.,-0.04610966,-0.0065
 0345,0.,0.00391930,-0.00427700,-0.00000006,-0.99048673,-0.09587315,-0.
 00997278,0.01072935,0.00059623,0.00997278,0.01072934,0.00059623,0.0153
 1223,-0.01077117,0.00248434,0.,0.00871835,0.00077677,-0.01531223,-0.01
 077117,0.00248434,0.00000006,1.02873217,0.,-0.00516605,0.01244789,0.,0
 .00039836,0.00029982,0.,-0.09470051,-0.03525727,-0.00054125,-0.0009472
 2,-0.00156737,0.00054125,-0.00094722,-0.00156737,0.00130870,-0.0010385
 2,0.00072424,0.,0.00083196,-0.00056384,-0.00130870,-0.00103852,0.00072
 424,0.,0.10155134,0.02453552,-0.03265288,-0.02330807,0.00563108,0.0030
 1624,0.00156250,0.00370489,0.00070653,0.00775536,-0.00022606,0.0176602
 9,-0.00240143,-0.00080583,-0.75102388,-0.41471133,0.08303205,-0.015070
 12,0.00705541,-0.00222923,-0.00147123,-0.01571324,-0.00207646,0.006527
 81,0.00379314,-0.00067248,-0.00019731,-0.00900362,-0.00071077,0.775611
 07,-0.02330779,-0.00574068,0.00325117,0.00156225,0.00121215,0.00213903
 ,0.00738627,0.01456900,-0.00080047,-0.00203190,-0.00238462,0.00020440,
 -0.41471120,-0.27215008,0.04793924,-0.00786264,0.00352761,-0.00110883,
 -0.00079499,-0.01007154,-0.00137692,0.00379302,0.00214807,-0.00038829,
 -0.00225747,-0.00669917,0.00010781,0.43837046,0.26941805,0.00447357,0.
 00258295,0.01244834,-0.00034556,-0.00019952,0.00030018,0.00109082,0.00
 000487,-0.00156748,0.00054944,0.00094206,-0.00156784,0.08201730,0.0473
 5111,-0.03524976,0.00155271,-0.00060933,0.00072406,0.00024600,0.001649
 03,0.00072626,-0.00072024,-0.00041583,-0.00056406,-0.00044878,0.000561
 60,0.00011332,-0.08794932,-0.05077809,0.02452603,0.00301624,-0.0015624
 9,-0.00370489,-0.03265287,0.02330807,-0.00563108,-0.00147123,0.0157132
 3,0.00207646,0.00652781,-0.00379314,0.00067249,-0.01507012,-0.00705541
 ,0.00222923,-0.75102379,0.41471139,-0.08303204,0.00070652,-0.00775536,
 0.00022606,0.01766030,0.00240143,0.00080583,0.00061815,-0.01256804,-0.
 00101782,0.01181084,0.00610603,-0.00109713,0.77561097,-0.00156225,0.00
 121215,0.00213904,0.02330779,-0.00574068,0.00325117,0.00079499,-0.0100
 7154,-0.00137692,-0.00379302,0.00214807,-0.00038829,0.00786265,0.00352
 761,-0.00110883,0.41471126,-0.27215018,0.04793925,-0.00738627,0.014569
 00,-0.00080047,0.00203189,-0.00238463,0.00020440,-0.00035566,0.0080808
 7,0.00067979,-0.00610603,-0.00311228,0.00054131,-0.43837052,0.26941816
 ,0.00034556,-0.00019952,0.00030018,-0.00447357,0.00258295,0.01244834,-
 0.00024600,0.00164903,0.00072626,0.00072024,-0.00041583,-0.00056406,-0
 .00155271,-0.00060933,0.00072406,-0.08201729,0.04735112,-0.03524976,-0
 .00109082,0.00000487,-0.00156748,-0.00054944,0.00094206,-0.00156784,0.
 00007991,-0.00122000,-0.00013275,0.00109713,0.00054131,-0.00013277,0.0
 8794932,-0.05077810,0.02452603,0.00030975,0.,0.,0.00771657,0.,0.,-0.00
 004190,0.,0.,-0.00077311,0.00039151,-0.00015467,-0.00077311,-0.0003915
 1,0.00015467,0.00454673,-0.00960274,-0.00058023,-0.03272328,-0.0000000
 5,0.,0.00454673,0.00960274,0.00058023,0.00001638,0.,0.,0.00061815,0.00
 035566,-0.00007991,-0.00019731,0.00225746,0.00044878,0.01633356,0.,0.0
 0391930,-0.00427700,0.,-0.04610965,-0.00650345,0.,0.00871835,0.0007767
 7,0.01531224,-0.01077117,0.00248434,-0.01531224,-0.01077117,0.00248434
 ,-0.00997277,0.01072935,0.00059623,-0.00000006,-0.99048674,-0.09587315
 ,0.00997277,0.01072934,0.00059623,0.,-0.00745317,-0.00051884,0.0125680
 4,0.00808087,-0.00122000,0.00900362,-0.00669917,0.00056160,0.00000006,
 1.02873217,0.,0.00039836,0.00029982,0.,-0.00516605,0.01244789,0.,0.000
 83196,-0.00056384,0.00130870,-0.00103852,0.00072424,-0.00130870,-0.001
 03852,0.00072424,-0.00054125,-0.00094722,-0.00156737,0.,-0.09470051,-0
 .03525727,0.00054125,-0.00094722,-0.00156737,0.,-0.00051884,0.00026300
 ,0.00101782,0.00067979,-0.00013275,0.00071077,0.00010781,0.00011332,0.
 ,0.10155134,0.02453552,0.00301624,0.00156250,0.00370489,-0.03265288,-0
 .02330807,0.00563108,-0.00147123,-0.01571324,-0.00207646,-0.01507013,0
 .00705541,-0.00222923,0.00652780,0.00379314,-0.00067249,0.01766030,-0.
 00240143,-0.00080583,0.00070653,0.00775536,-0.00022606,-0.75102388,-0.
 41471133,0.08303205,0.00061815,0.01256804,0.00101782,-0.00558584,-0.00
 323444,0.00044914,-0.00994967,0.00337326,-0.00026196,-0.00019731,-0.00
 900362,-0.00071077,0.77561108,0.00156226,0.00121215,0.00213903,-0.0233
 0779,-0.00574067,0.00325117,-0.00079499,-0.01007154,-0.00137692,-0.007
 86265,0.00352761,-0.00110883,0.00379302,0.00214807,-0.00038829,-0.0020
 3190,-0.00238462,0.00020440,0.00738627,0.01456900,-0.00080047,-0.41471
 121,-0.27215008,0.04793924,0.00035566,0.00808087,0.00067979,-0.0032344
 4,-0.00185106,0.00025931,-0.00337326,0.00305368,-0.00066948,-0.0022574
 7,-0.00669917,0.00010781,0.43837046,0.26941805,-0.00034556,-0.00019952
 ,0.00030018,0.00447357,0.00258295,0.01244834,0.00024600,0.00164903,0.0
 0072626,0.00155271,-0.00060933,0.00072406,-0.00072024,-0.00041583,-0.0
 0056406,0.00054944,0.00094206,-0.00156784,0.00109082,0.00000487,-0.001
 56748,0.08201730,0.04735111,-0.03524976,-0.00007991,-0.00122000,-0.000
 13275,0.00044914,0.00025931,0.00026315,0.00026196,-0.00066948,0.000113
 33,-0.00044878,0.00056160,0.00011332,-0.08794932,-0.05077809,0.0245260
 3,-0.03265288,0.02330808,-0.00563108,0.00301624,-0.00156250,-0.0037048
 9,0.00070652,-0.00775536,0.00022606,-0.75102378,0.41471139,-0.08303204
 ,0.01766029,0.00240143,0.00080583,0.00652780,-0.00379314,0.00067248,-0
 .00147123,0.01571324,0.00207645,-0.01507012,-0.00705541,0.00222923,-0.
 00019731,0.00900362,0.00071077,-0.00994967,-0.00337325,0.00026196,-0.0
 0558584,0.00323444,-0.00044914,0.00061815,-0.01256804,-0.00101782,0.01
 181084,0.00610603,-0.00109713,0.77561097,0.02330780,-0.00574068,0.0032
 5117,-0.00156225,0.00121215,0.00213904,-0.00738627,0.01456900,-0.00080
 048,0.41471126,-0.27215018,0.04793925,0.00203189,-0.00238462,0.0002044
 0,-0.00379302,0.00214807,-0.00038829,0.00079499,-0.01007154,-0.0013769
 2,0.00786265,0.00352761,-0.00110883,0.00225746,-0.00669917,0.00010781,
 0.00337326,0.00305368,-0.00066948,0.00323444,-0.00185106,0.00025931,-0
 .00035566,0.00808088,0.00067979,-0.00610604,-0.00311228,0.00054131,-0.
 43837052,0.26941816,-0.00447357,0.00258295,0.01244834,0.00034556,-0.00
 019952,0.00030018,-0.00109082,0.00000487,-0.00156748,-0.08201729,0.047
 35112,-0.03524976,-0.00054944,0.00094206,-0.00156784,0.00072024,-0.000
 41583,-0.00056406,-0.00024600,0.00164903,0.00072626,-0.00155271,-0.000
 60933,0.00072406,0.00044878,0.00056160,0.00011332,-0.00026196,-0.00066
 948,0.00011333,-0.00044914,0.00025931,0.00026315,0.00007991,-0.0012200
 0,-0.00013275,0.00109713,0.00054131,-0.00013277,0.08794932,-0.05077810
 ,0.02452603||0.,-0.00000086,0.00000218,0.,0.00000086,-0.00000218,0.,0.
 00000240,-0.00000013,0.00000450,-0.00000207,-0.00000266,-0.00000450,-0
 .00000207,-0.00000266,-0.00000450,0.00000207,0.00000266,0.,-0.00000240
 ,0.00000013,0.00000450,0.00000207,0.00000266,0.,-0.00000003,0.00000122
 ,0.00000008,0.00000048,0.00000214,0.00000008,-0.00000048,-0.00000214,0
 .,0.00000003,-0.00000122,-0.00000008,-0.00000048,-0.00000214,-0.000000
 08,0.00000048,0.00000214|||@


 WHERE THERE IS MUCH DESIRE TO LEARN, THERE OF NECESSITY WILL BE
 MUCH ARGUING, MUCH WRITING, MANY OPINIONS; FOR OPINION IN GOOD MEN
 IS BUT KNOWLEDGE IN THE MAKING. -- JOHN MILTON.
 Job cpu time:  0 days  3 hours 24 minutes 46.0 seconds.
 File lengths (MBytes):  RWF=    483 Int=      0 D2E=      0 Chk=     13 Scr=      1
 Normal termination of Gaussian 09 at Thu Oct 20 13:43:45 2016.
